 Hexagonal lattice structure of dimension 10 x 10 x 1 with a = 2.4595 and c = 6.7000
400 atoms
2 atom types

0.00000000E+00 4.26000000E+01 xlo xhi
0.00000000E+00 2.45951215E+01 ylo yhi
-1.67500000E+00 1.67500000E+00 zlo zhi

Atoms

    1   2  0.0000E+00  1.06500000E+00  6.14878037E-01  0.00000000E+00
    2   1  0.0000E+00  1.77500000E+00  1.84463411E+00  0.00000000E+00
    3   1  0.0000E+00  3.19500000E+00  1.84463411E+00  0.00000000E+00
    4   1  0.0000E+00  3.90500000E+00  6.14878037E-01  0.00000000E+00
    5   1  0.0000E+00  1.06500000E+00  3.07439018E+00  0.00000000E+00
    6   1  0.0000E+00  1.77500000E+00  4.30414626E+00  0.00000000E+00
    7   1  0.0000E+00  3.19500000E+00  4.30414626E+00  0.00000000E+00
    8   1  0.0000E+00  3.90500000E+00  3.07439018E+00  0.00000000E+00
    9   1  0.0000E+00  1.06500000E+00  5.53390233E+00  0.00000000E+00
   10   1  0.0000E+00  1.77500000E+00  6.76365840E+00  0.00000000E+00
   11   1  0.0000E+00  3.19500000E+00  6.76365840E+00  0.00000000E+00
   12   1  0.0000E+00  3.90500000E+00  5.53390233E+00  0.00000000E+00
   13   1  0.0000E+00  1.06500000E+00  7.99341448E+00  0.00000000E+00
   14   1  0.0000E+00  1.77500000E+00  9.22317055E+00  0.00000000E+00
   15   1  0.0000E+00  3.19500000E+00  9.22317055E+00  0.00000000E+00
   16   1  0.0000E+00  3.90500000E+00  7.99341448E+00  0.00000000E+00
   17   1  0.0000E+00  1.06500000E+00  1.04529266E+01  0.00000000E+00
   18   1  0.0000E+00  1.77500000E+00  1.16826827E+01  0.00000000E+00
   19   1  0.0000E+00  3.19500000E+00  1.16826827E+01  0.00000000E+00
   20   1  0.0000E+00  3.90500000E+00  1.04529266E+01  0.00000000E+00
   21   1  0.0000E+00  1.06500000E+00  1.29124388E+01  0.00000000E+00
   22   1  0.0000E+00  1.77500000E+00  1.41421948E+01  0.00000000E+00
   23   1  0.0000E+00  3.19500000E+00  1.41421948E+01  0.00000000E+00
   24   1  0.0000E+00  3.90500000E+00  1.29124388E+01  0.00000000E+00
   25   1  0.0000E+00  1.06500000E+00  1.53719509E+01  0.00000000E+00
   26   1  0.0000E+00  1.77500000E+00  1.66017070E+01  0.00000000E+00
   27   1  0.0000E+00  3.19500000E+00  1.66017070E+01  0.00000000E+00
   28   1  0.0000E+00  3.90500000E+00  1.53719509E+01  0.00000000E+00
   29   1  0.0000E+00  1.06500000E+00  1.78314631E+01  0.00000000E+00
   30   1  0.0000E+00  1.77500000E+00  1.90612191E+01  0.00000000E+00
   31   1  0.0000E+00  3.19500000E+00  1.90612191E+01  0.00000000E+00
   32   1  0.0000E+00  3.90500000E+00  1.78314631E+01  0.00000000E+00
   33   1  0.0000E+00  1.06500000E+00  2.02909752E+01  0.00000000E+00
   34   1  0.0000E+00  1.77500000E+00  2.15207313E+01  0.00000000E+00
   35   1  0.0000E+00  3.19500000E+00  2.15207313E+01  0.00000000E+00
   36   1  0.0000E+00  3.90500000E+00  2.02909752E+01  0.00000000E+00
   37   1  0.0000E+00  1.06500000E+00  2.27504874E+01  0.00000000E+00
   38   2  0.0000E+00  1.77500000E+00  2.39802434E+01  0.00000000E+00
   39   1  0.0000E+00  3.19500000E+00  2.39802434E+01  0.00000000E+00
   40   1  0.0000E+00  3.90500000E+00  2.27504874E+01  0.00000000E+00
   41   1  0.0000E+00  5.32500000E+00  6.14878037E-01  0.00000000E+00
   42   1  0.0000E+00  6.03500000E+00  1.84463411E+00  0.00000000E+00
   43   1  0.0000E+00  7.45500000E+00  1.84463411E+00  0.00000000E+00
   44   1  0.0000E+00  8.16500000E+00  6.14878037E-01  0.00000000E+00
   45   1  0.0000E+00  5.32500000E+00  3.07439018E+00  0.00000000E+00
   46   1  0.0000E+00  6.03500000E+00  4.30414626E+00  0.00000000E+00
   47   1  0.0000E+00  7.45500000E+00  4.30414626E+00  0.00000000E+00
   48   1  0.0000E+00  8.16500000E+00  3.07439018E+00  0.00000000E+00
   49   1  0.0000E+00  5.32500000E+00  5.53390233E+00  0.00000000E+00
   50   1  0.0000E+00  6.03500000E+00  6.76365840E+00  0.00000000E+00
   51   1  0.0000E+00  7.45500000E+00  6.76365840E+00  0.00000000E+00
   52   1  0.0000E+00  8.16500000E+00  5.53390233E+00  0.00000000E+00
   53   1  0.0000E+00  5.32500000E+00  7.99341448E+00  0.00000000E+00
   54   1  0.0000E+00  6.03500000E+00  9.22317055E+00  0.00000000E+00
   55   1  0.0000E+00  7.45500000E+00  9.22317055E+00  0.00000000E+00
   56   1  0.0000E+00  8.16500000E+00  7.99341448E+00  0.00000000E+00
   57   1  0.0000E+00  5.32500000E+00  1.04529266E+01  0.00000000E+00
   58   1  0.0000E+00  6.03500000E+00  1.16826827E+01  0.00000000E+00
   59   1  0.0000E+00  7.45500000E+00  1.16826827E+01  0.00000000E+00
   60   1  0.0000E+00  8.16500000E+00  1.04529266E+01  0.00000000E+00
   61   1  0.0000E+00  5.32500000E+00  1.29124388E+01  0.00000000E+00
   62   1  0.0000E+00  6.03500000E+00  1.41421948E+01  0.00000000E+00
   63   1  0.0000E+00  7.45500000E+00  1.41421948E+01  0.00000000E+00
   64   1  0.0000E+00  8.16500000E+00  1.29124388E+01  0.00000000E+00
   65   1  0.0000E+00  5.32500000E+00  1.53719509E+01  0.00000000E+00
   66   1  0.0000E+00  6.03500000E+00  1.66017070E+01  0.00000000E+00
   67   1  0.0000E+00  7.45500000E+00  1.66017070E+01  0.00000000E+00
   68   1  0.0000E+00  8.16500000E+00  1.53719509E+01  0.00000000E+00
   69   1  0.0000E+00  5.32500000E+00  1.78314631E+01  0.00000000E+00
   70   1  0.0000E+00  6.03500000E+00  1.90612191E+01  0.00000000E+00
   71   1  0.0000E+00  7.45500000E+00  1.90612191E+01  0.00000000E+00
   72   1  0.0000E+00  8.16500000E+00  1.78314631E+01  0.00000000E+00
   73   1  0.0000E+00  5.32500000E+00  2.02909752E+01  0.00000000E+00
   74   1  0.0000E+00  6.03500000E+00  2.15207313E+01  0.00000000E+00
   75   1  0.0000E+00  7.45500000E+00  2.15207313E+01  0.00000000E+00
   76   1  0.0000E+00  8.16500000E+00  2.02909752E+01  0.00000000E+00
   77   1  0.0000E+00  5.32500000E+00  2.27504874E+01  0.00000000E+00
   78   1  0.0000E+00  6.03500000E+00  2.39802434E+01  0.00000000E+00
   79   1  0.0000E+00  7.45500000E+00  2.39802434E+01  0.00000000E+00
   80   1  0.0000E+00  8.16500000E+00  2.27504874E+01  0.00000000E+00
   81   1  0.0000E+00  9.58500000E+00  6.14878037E-01  0.00000000E+00
   82   1  0.0000E+00  1.02950000E+01  1.84463411E+00  0.00000000E+00
   83   1  0.0000E+00  1.17150000E+01  1.84463411E+00  0.00000000E+00
   84   1  0.0000E+00  1.24250000E+01  6.14878037E-01  0.00000000E+00
   85   1  0.0000E+00  9.58500000E+00  3.07439018E+00  0.00000000E+00
   86   1  0.0000E+00  1.02950000E+01  4.30414626E+00  0.00000000E+00
   87   1  0.0000E+00  1.17150000E+01  4.30414626E+00  0.00000000E+00
   88   1  0.0000E+00  1.24250000E+01  3.07439018E+00  0.00000000E+00
   89   1  0.0000E+00  9.58500000E+00  5.53390233E+00  0.00000000E+00
   90   1  0.0000E+00  1.02950000E+01  6.76365840E+00  0.00000000E+00
   91   1  0.0000E+00  1.17150000E+01  6.76365840E+00  0.00000000E+00
   92   1  0.0000E+00  1.24250000E+01  5.53390233E+00  0.00000000E+00
   93   1  0.0000E+00  9.58500000E+00  7.99341448E+00  0.00000000E+00
   94   1  0.0000E+00  1.02950000E+01  9.22317055E+00  0.00000000E+00
   95   1  0.0000E+00  1.17150000E+01  9.22317055E+00  0.00000000E+00
   96   1  0.0000E+00  1.24250000E+01  7.99341448E+00  0.00000000E+00
   97   1  0.0000E+00  9.58500000E+00  1.04529266E+01  0.00000000E+00
   98   1  0.0000E+00  1.02950000E+01  1.16826827E+01  0.00000000E+00
   99   1  0.0000E+00  1.17150000E+01  1.16826827E+01  0.00000000E+00
  100   1  0.0000E+00  1.24250000E+01  1.04529266E+01  0.00000000E+00
  101   1  0.0000E+00  9.58500000E+00  1.29124388E+01  0.00000000E+00
  102   1  0.0000E+00  1.02950000E+01  1.41421948E+01  0.00000000E+00
  103   1  0.0000E+00  1.17150000E+01  1.41421948E+01  0.00000000E+00
  104   1  0.0000E+00  1.24250000E+01  1.29124388E+01  0.00000000E+00
  105   1  0.0000E+00  9.58500000E+00  1.53719509E+01  0.00000000E+00
  106   1  0.0000E+00  1.02950000E+01  1.66017070E+01  0.00000000E+00
  107   1  0.0000E+00  1.17150000E+01  1.66017070E+01  0.00000000E+00
  108   1  0.0000E+00  1.24250000E+01  1.53719509E+01  0.00000000E+00
  109   1  0.0000E+00  9.58500000E+00  1.78314631E+01  0.00000000E+00
  110   1  0.0000E+00  1.02950000E+01  1.90612191E+01  0.00000000E+00
  111   1  0.0000E+00  1.17150000E+01  1.90612191E+01  0.00000000E+00
  112   1  0.0000E+00  1.24250000E+01  1.78314631E+01  0.00000000E+00
  113   1  0.0000E+00  9.58500000E+00  2.02909752E+01  0.00000000E+00
  114   1  0.0000E+00  1.02950000E+01  2.15207313E+01  0.00000000E+00
  115   1  0.0000E+00  1.17150000E+01  2.15207313E+01  0.00000000E+00
  116   1  0.0000E+00  1.24250000E+01  2.02909752E+01  0.00000000E+00
  117   1  0.0000E+00  9.58500000E+00  2.27504874E+01  0.00000000E+00
  118   1  0.0000E+00  1.02950000E+01  2.39802434E+01  0.00000000E+00
  119   1  0.0000E+00  1.17150000E+01  2.39802434E+01  0.00000000E+00
  120   1  0.0000E+00  1.24250000E+01  2.27504874E+01  0.00000000E+00
  121   1  0.0000E+00  1.38450000E+01  6.14878037E-01  0.00000000E+00
  122   1  0.0000E+00  1.45550000E+01  1.84463411E+00  0.00000000E+00
  123   1  0.0000E+00  1.59750000E+01  1.84463411E+00  0.00000000E+00
  124   1  0.0000E+00  1.66850000E+01  6.14878037E-01  0.00000000E+00
  125   1  0.0000E+00  1.38450000E+01  3.07439018E+00  0.00000000E+00
  126   1  0.0000E+00  1.45550000E+01  4.30414626E+00  0.00000000E+00
  127   1  0.0000E+00  1.59750000E+01  4.30414626E+00  0.00000000E+00
  128   1  0.0000E+00  1.66850000E+01  3.07439018E+00  0.00000000E+00
  129   1  0.0000E+00  1.38450000E+01  5.53390233E+00  0.00000000E+00
  130   1  0.0000E+00  1.45550000E+01  6.76365840E+00  0.00000000E+00
  131   1  0.0000E+00  1.59750000E+01  6.76365840E+00  0.00000000E+00
  132   1  0.0000E+00  1.66850000E+01  5.53390233E+00  0.00000000E+00
  133   1  0.0000E+00  1.38450000E+01  7.99341448E+00  0.00000000E+00
  134   1  0.0000E+00  1.45550000E+01  9.22317055E+00  0.00000000E+00
  135   1  0.0000E+00  1.59750000E+01  9.22317055E+00  0.00000000E+00
  136   1  0.0000E+00  1.66850000E+01  7.99341448E+00  0.00000000E+00
  137   1  0.0000E+00  1.38450000E+01  1.04529266E+01  0.00000000E+00
  138   1  0.0000E+00  1.45550000E+01  1.16826827E+01  0.00000000E+00
  139   1  0.0000E+00  1.59750000E+01  1.16826827E+01  0.00000000E+00
  140   1  0.0000E+00  1.66850000E+01  1.04529266E+01  0.00000000E+00
  141   1  0.0000E+00  1.38450000E+01  1.29124388E+01  0.00000000E+00
  142   1  0.0000E+00  1.45550000E+01  1.41421948E+01  0.00000000E+00
  143   1  0.0000E+00  1.59750000E+01  1.41421948E+01  0.00000000E+00
  144   1  0.0000E+00  1.66850000E+01  1.29124388E+01  0.00000000E+00
  145   1  0.0000E+00  1.38450000E+01  1.53719509E+01  0.00000000E+00
  146   1  0.0000E+00  1.45550000E+01  1.66017070E+01  0.00000000E+00
  147   1  0.0000E+00  1.59750000E+01  1.66017070E+01  0.00000000E+00
  148   1  0.0000E+00  1.66850000E+01  1.53719509E+01  0.00000000E+00
  149   1  0.0000E+00  1.38450000E+01  1.78314631E+01  0.00000000E+00
  150   1  0.0000E+00  1.45550000E+01  1.90612191E+01  0.00000000E+00
  151   1  0.0000E+00  1.59750000E+01  1.90612191E+01  0.00000000E+00
  152   1  0.0000E+00  1.66850000E+01  1.78314631E+01  0.00000000E+00
  153   1  0.0000E+00  1.38450000E+01  2.02909752E+01  0.00000000E+00
  154   1  0.0000E+00  1.45550000E+01  2.15207313E+01  0.00000000E+00
  155   1  0.0000E+00  1.59750000E+01  2.15207313E+01  0.00000000E+00
  156   1  0.0000E+00  1.66850000E+01  2.02909752E+01  0.00000000E+00
  157   1  0.0000E+00  1.38450000E+01  2.27504874E+01  0.00000000E+00
  158   1  0.0000E+00  1.45550000E+01  2.39802434E+01  0.00000000E+00
  159   1  0.0000E+00  1.59750000E+01  2.39802434E+01  0.00000000E+00
  160   1  0.0000E+00  1.66850000E+01  2.27504874E+01  0.00000000E+00
  161   1  0.0000E+00  1.81050000E+01  6.14878037E-01  0.00000000E+00
  162   1  0.0000E+00  1.88150000E+01  1.84463411E+00  0.00000000E+00
  163   1  0.0000E+00  2.02350000E+01  1.84463411E+00  0.00000000E+00
  164   1  0.0000E+00  2.09450000E+01  6.14878037E-01  0.00000000E+00
  165   1  0.0000E+00  1.81050000E+01  3.07439018E+00  0.00000000E+00
  166   1  0.0000E+00  1.88150000E+01  4.30414626E+00  0.00000000E+00
  167   1  0.0000E+00  2.02350000E+01  4.30414626E+00  0.00000000E+00
  168   1  0.0000E+00  2.09450000E+01  3.07439018E+00  0.00000000E+00
  169   1  0.0000E+00  1.81050000E+01  5.53390233E+00  0.00000000E+00
  170   1  0.0000E+00  1.88150000E+01  6.76365840E+00  0.00000000E+00
  171   1  0.0000E+00  2.02350000E+01  6.76365840E+00  0.00000000E+00
  172   1  0.0000E+00  2.09450000E+01  5.53390233E+00  0.00000000E+00
  173   1  0.0000E+00  1.81050000E+01  7.99341448E+00  0.00000000E+00
  174   1  0.0000E+00  1.88150000E+01  9.22317055E+00  0.00000000E+00
  175   1  0.0000E+00  2.02350000E+01  9.22317055E+00  0.00000000E+00
  176   1  0.0000E+00  2.09450000E+01  7.99341448E+00  0.00000000E+00
  177   1  0.0000E+00  1.81050000E+01  1.04529266E+01  0.00000000E+00
  178   1  0.0000E+00  1.88150000E+01  1.16826827E+01  0.00000000E+00
  179   1  0.0000E+00  2.02350000E+01  1.16826827E+01  0.00000000E+00
  180   1  0.0000E+00  2.09450000E+01  1.04529266E+01  0.00000000E+00
  181   1  0.0000E+00  1.81050000E+01  1.29124388E+01  0.00000000E+00
  182   1  0.0000E+00  1.88150000E+01  1.41421948E+01  0.00000000E+00
  183   1  0.0000E+00  2.02350000E+01  1.41421948E+01  0.00000000E+00
  184   1  0.0000E+00  2.09450000E+01  1.29124388E+01  0.00000000E+00
  185   1  0.0000E+00  1.81050000E+01  1.53719509E+01  0.00000000E+00
  186   1  0.0000E+00  1.88150000E+01  1.66017070E+01  0.00000000E+00
  187   1  0.0000E+00  2.02350000E+01  1.66017070E+01  0.00000000E+00
  188   1  0.0000E+00  2.09450000E+01  1.53719509E+01  0.00000000E+00
  189   1  0.0000E+00  1.81050000E+01  1.78314631E+01  0.00000000E+00
  190   1  0.0000E+00  1.88150000E+01  1.90612191E+01  0.00000000E+00
  191   1  0.0000E+00  2.02350000E+01  1.90612191E+01  0.00000000E+00
  192   1  0.0000E+00  2.09450000E+01  1.78314631E+01  0.00000000E+00
  193   1  0.0000E+00  1.81050000E+01  2.02909752E+01  0.00000000E+00
  194   1  0.0000E+00  1.88150000E+01  2.15207313E+01  0.00000000E+00
  195   1  0.0000E+00  2.02350000E+01  2.15207313E+01  0.00000000E+00
  196   1  0.0000E+00  2.09450000E+01  2.02909752E+01  0.00000000E+00
  197   1  0.0000E+00  1.81050000E+01  2.27504874E+01  0.00000000E+00
  198   1  0.0000E+00  1.88150000E+01  2.39802434E+01  0.00000000E+00
  199   1  0.0000E+00  2.02350000E+01  2.39802434E+01  0.00000000E+00
  200   1  0.0000E+00  2.09450000E+01  2.27504874E+01  0.00000000E+00
  201   1  0.0000E+00  2.23650000E+01  6.14878037E-01  0.00000000E+00
  202   1  0.0000E+00  2.30750000E+01  1.84463411E+00  0.00000000E+00
  203   1  0.0000E+00  2.44950000E+01  1.84463411E+00  0.00000000E+00
  204   1  0.0000E+00  2.52050000E+01  6.14878037E-01  0.00000000E+00
  205   1  0.0000E+00  2.23650000E+01  3.07439018E+00  0.00000000E+00
  206   1  0.0000E+00  2.30750000E+01  4.30414626E+00  0.00000000E+00
  207   1  0.0000E+00  2.44950000E+01  4.30414626E+00  0.00000000E+00
  208   1  0.0000E+00  2.52050000E+01  3.07439018E+00  0.00000000E+00
  209   1  0.0000E+00  2.23650000E+01  5.53390233E+00  0.00000000E+00
  210   1  0.0000E+00  2.30750000E+01  6.76365840E+00  0.00000000E+00
  211   1  0.0000E+00  2.44950000E+01  6.76365840E+00  0.00000000E+00
  212   1  0.0000E+00  2.52050000E+01  5.53390233E+00  0.00000000E+00
  213   1  0.0000E+00  2.23650000E+01  7.99341448E+00  0.00000000E+00
  214   1  0.0000E+00  2.30750000E+01  9.22317055E+00  0.00000000E+00
  215   1  0.0000E+00  2.44950000E+01  9.22317055E+00  0.00000000E+00
  216   1  0.0000E+00  2.52050000E+01  7.99341448E+00  0.00000000E+00
  217   1  0.0000E+00  2.23650000E+01  1.04529266E+01  0.00000000E+00
  218   1  0.0000E+00  2.30750000E+01  1.16826827E+01  0.00000000E+00
  219   1  0.0000E+00  2.44950000E+01  1.16826827E+01  0.00000000E+00
  220   1  0.0000E+00  2.52050000E+01  1.04529266E+01  0.00000000E+00
  221   1  0.0000E+00  2.23650000E+01  1.29124388E+01  0.00000000E+00
  222   1  0.0000E+00  2.30750000E+01  1.41421948E+01  0.00000000E+00
  223   1  0.0000E+00  2.44950000E+01  1.41421948E+01  0.00000000E+00
  224   1  0.0000E+00  2.52050000E+01  1.29124388E+01  0.00000000E+00
  225   1  0.0000E+00  2.23650000E+01  1.53719509E+01  0.00000000E+00
  226   1  0.0000E+00  2.30750000E+01  1.66017070E+01  0.00000000E+00
  227   1  0.0000E+00  2.44950000E+01  1.66017070E+01  0.00000000E+00
  228   1  0.0000E+00  2.52050000E+01  1.53719509E+01  0.00000000E+00
  229   1  0.0000E+00  2.23650000E+01  1.78314631E+01  0.00000000E+00
  230   1  0.0000E+00  2.30750000E+01  1.90612191E+01  0.00000000E+00
  231   1  0.0000E+00  2.44950000E+01  1.90612191E+01  0.00000000E+00
  232   1  0.0000E+00  2.52050000E+01  1.78314631E+01  0.00000000E+00
  233   1  0.0000E+00  2.23650000E+01  2.02909752E+01  0.00000000E+00
  234   1  0.0000E+00  2.30750000E+01  2.15207313E+01  0.00000000E+00
  235   1  0.0000E+00  2.44950000E+01  2.15207313E+01  0.00000000E+00
  236   1  0.0000E+00  2.52050000E+01  2.02909752E+01  0.00000000E+00
  237   1  0.0000E+00  2.23650000E+01  2.27504874E+01  0.00000000E+00
  238   1  0.0000E+00  2.30750000E+01  2.39802434E+01  0.00000000E+00
  239   1  0.0000E+00  2.44950000E+01  2.39802434E+01  0.00000000E+00
  240   1  0.0000E+00  2.52050000E+01  2.27504874E+01  0.00000000E+00
  241   1  0.0000E+00  2.66250000E+01  6.14878037E-01  0.00000000E+00
  242   1  0.0000E+00  2.73350000E+01  1.84463411E+00  0.00000000E+00
  243   1  0.0000E+00  2.87550000E+01  1.84463411E+00  0.00000000E+00
  244   1  0.0000E+00  2.94650000E+01  6.14878037E-01  0.00000000E+00
  245   1  0.0000E+00  2.66250000E+01  3.07439018E+00  0.00000000E+00
  246   1  0.0000E+00  2.73350000E+01  4.30414626E+00  0.00000000E+00
  247   1  0.0000E+00  2.87550000E+01  4.30414626E+00  0.00000000E+00
  248   1  0.0000E+00  2.94650000E+01  3.07439018E+00  0.00000000E+00
  249   1  0.0000E+00  2.66250000E+01  5.53390233E+00  0.00000000E+00
  250   1  0.0000E+00  2.73350000E+01  6.76365840E+00  0.00000000E+00
  251   1  0.0000E+00  2.87550000E+01  6.76365840E+00  0.00000000E+00
  252   1  0.0000E+00  2.94650000E+01  5.53390233E+00  0.00000000E+00
  253   1  0.0000E+00  2.66250000E+01  7.99341448E+00  0.00000000E+00
  254   1  0.0000E+00  2.73350000E+01  9.22317055E+00  0.00000000E+00
  255   1  0.0000E+00  2.87550000E+01  9.22317055E+00  0.00000000E+00
  256   1  0.0000E+00  2.94650000E+01  7.99341448E+00  0.00000000E+00
  257   1  0.0000E+00  2.66250000E+01  1.04529266E+01  0.00000000E+00
  258   1  0.0000E+00  2.73350000E+01  1.16826827E+01  0.00000000E+00
  259   1  0.0000E+00  2.87550000E+01  1.16826827E+01  0.00000000E+00
  260   1  0.0000E+00  2.94650000E+01  1.04529266E+01  0.00000000E+00
  261   1  0.0000E+00  2.66250000E+01  1.29124388E+01  0.00000000E+00
  262   1  0.0000E+00  2.73350000E+01  1.41421948E+01  0.00000000E+00
  263   1  0.0000E+00  2.87550000E+01  1.41421948E+01  0.00000000E+00
  264   1  0.0000E+00  2.94650000E+01  1.29124388E+01  0.00000000E+00
  265   1  0.0000E+00  2.66250000E+01  1.53719509E+01  0.00000000E+00
  266   1  0.0000E+00  2.73350000E+01  1.66017070E+01  0.00000000E+00
  267   1  0.0000E+00  2.87550000E+01  1.66017070E+01  0.00000000E+00
  268   1  0.0000E+00  2.94650000E+01  1.53719509E+01  0.00000000E+00
  269   1  0.0000E+00  2.66250000E+01  1.78314631E+01  0.00000000E+00
  270   1  0.0000E+00  2.73350000E+01  1.90612191E+01  0.00000000E+00
  271   1  0.0000E+00  2.87550000E+01  1.90612191E+01  0.00000000E+00
  272   1  0.0000E+00  2.94650000E+01  1.78314631E+01  0.00000000E+00
  273   1  0.0000E+00  2.66250000E+01  2.02909752E+01  0.00000000E+00
  274   1  0.0000E+00  2.73350000E+01  2.15207313E+01  0.00000000E+00
  275   1  0.0000E+00  2.87550000E+01  2.15207313E+01  0.00000000E+00
  276   1  0.0000E+00  2.94650000E+01  2.02909752E+01  0.00000000E+00
  277   1  0.0000E+00  2.66250000E+01  2.27504874E+01  0.00000000E+00
  278   1  0.0000E+00  2.73350000E+01  2.39802434E+01  0.00000000E+00
  279   1  0.0000E+00  2.87550000E+01  2.39802434E+01  0.00000000E+00
  280   1  0.0000E+00  2.94650000E+01  2.27504874E+01  0.00000000E+00
  281   1  0.0000E+00  3.08850000E+01  6.14878037E-01  0.00000000E+00
  282   1  0.0000E+00  3.15950000E+01  1.84463411E+00  0.00000000E+00
  283   1  0.0000E+00  3.30150000E+01  1.84463411E+00  0.00000000E+00
  284   1  0.0000E+00  3.37250000E+01  6.14878037E-01  0.00000000E+00
  285   1  0.0000E+00  3.08850000E+01  3.07439018E+00  0.00000000E+00
  286   1  0.0000E+00  3.15950000E+01  4.30414626E+00  0.00000000E+00
  287   1  0.0000E+00  3.30150000E+01  4.30414626E+00  0.00000000E+00
  288   1  0.0000E+00  3.37250000E+01  3.07439018E+00  0.00000000E+00
  289   1  0.0000E+00  3.08850000E+01  5.53390233E+00  0.00000000E+00
  290   1  0.0000E+00  3.15950000E+01  6.76365840E+00  0.00000000E+00
  291   1  0.0000E+00  3.30150000E+01  6.76365840E+00  0.00000000E+00
  292   1  0.0000E+00  3.37250000E+01  5.53390233E+00  0.00000000E+00
  293   1  0.0000E+00  3.08850000E+01  7.99341448E+00  0.00000000E+00
  294   1  0.0000E+00  3.15950000E+01  9.22317055E+00  0.00000000E+00
  295   1  0.0000E+00  3.30150000E+01  9.22317055E+00  0.00000000E+00
  296   1  0.0000E+00  3.37250000E+01  7.99341448E+00  0.00000000E+00
  297   1  0.0000E+00  3.08850000E+01  1.04529266E+01  0.00000000E+00
  298   1  0.0000E+00  3.15950000E+01  1.16826827E+01  0.00000000E+00
  299   1  0.0000E+00  3.30150000E+01  1.16826827E+01  0.00000000E+00
  300   1  0.0000E+00  3.37250000E+01  1.04529266E+01  0.00000000E+00
  301   1  0.0000E+00  3.08850000E+01  1.29124388E+01  0.00000000E+00
  302   1  0.0000E+00  3.15950000E+01  1.41421948E+01  0.00000000E+00
  303   1  0.0000E+00  3.30150000E+01  1.41421948E+01  0.00000000E+00
  304   1  0.0000E+00  3.37250000E+01  1.29124388E+01  0.00000000E+00
  305   1  0.0000E+00  3.08850000E+01  1.53719509E+01  0.00000000E+00
  306   1  0.0000E+00  3.15950000E+01  1.66017070E+01  0.00000000E+00
  307   1  0.0000E+00  3.30150000E+01  1.66017070E+01  0.00000000E+00
  308   1  0.0000E+00  3.37250000E+01  1.53719509E+01  0.00000000E+00
  309   1  0.0000E+00  3.08850000E+01  1.78314631E+01  0.00000000E+00
  310   1  0.0000E+00  3.15950000E+01  1.90612191E+01  0.00000000E+00
  311   1  0.0000E+00  3.30150000E+01  1.90612191E+01  0.00000000E+00
  312   1  0.0000E+00  3.37250000E+01  1.78314631E+01  0.00000000E+00
  313   1  0.0000E+00  3.08850000E+01  2.02909752E+01  0.00000000E+00
  314   1  0.0000E+00  3.15950000E+01  2.15207313E+01  0.00000000E+00
  315   1  0.0000E+00  3.30150000E+01  2.15207313E+01  0.00000000E+00
  316   1  0.0000E+00  3.37250000E+01  2.02909752E+01  0.00000000E+00
  317   1  0.0000E+00  3.08850000E+01  2.27504874E+01  0.00000000E+00
  318   1  0.0000E+00  3.15950000E+01  2.39802434E+01  0.00000000E+00
  319   1  0.0000E+00  3.30150000E+01  2.39802434E+01  0.00000000E+00
  320   1  0.0000E+00  3.37250000E+01  2.27504874E+01  0.00000000E+00
  321   1  0.0000E+00  3.51450000E+01  6.14878037E-01  0.00000000E+00
  322   1  0.0000E+00  3.58550000E+01  1.84463411E+00  0.00000000E+00
  323   1  0.0000E+00  3.72750000E+01  1.84463411E+00  0.00000000E+00
  324   1  0.0000E+00  3.79850000E+01  6.14878037E-01  0.00000000E+00
  325   1  0.0000E+00  3.51450000E+01  3.07439018E+00  0.00000000E+00
  326   1  0.0000E+00  3.58550000E+01  4.30414626E+00  0.00000000E+00
  327   1  0.0000E+00  3.72750000E+01  4.30414626E+00  0.00000000E+00
  328   1  0.0000E+00  3.79850000E+01  3.07439018E+00  0.00000000E+00
  329   1  0.0000E+00  3.51450000E+01  5.53390233E+00  0.00000000E+00
  330   1  0.0000E+00  3.58550000E+01  6.76365840E+00  0.00000000E+00
  331   1  0.0000E+00  3.72750000E+01  6.76365840E+00  0.00000000E+00
  332   1  0.0000E+00  3.79850000E+01  5.53390233E+00  0.00000000E+00
  333   1  0.0000E+00  3.51450000E+01  7.99341448E+00  0.00000000E+00
  334   1  0.0000E+00  3.58550000E+01  9.22317055E+00  0.00000000E+00
  335   1  0.0000E+00  3.72750000E+01  9.22317055E+00  0.00000000E+00
  336   1  0.0000E+00  3.79850000E+01  7.99341448E+00  0.00000000E+00
  337   1  0.0000E+00  3.51450000E+01  1.04529266E+01  0.00000000E+00
  338   1  0.0000E+00  3.58550000E+01  1.16826827E+01  0.00000000E+00
  339   1  0.0000E+00  3.72750000E+01  1.16826827E+01  0.00000000E+00
  340   1  0.0000E+00  3.79850000E+01  1.04529266E+01  0.00000000E+00
  341   1  0.0000E+00  3.51450000E+01  1.29124388E+01  0.00000000E+00
  342   1  0.0000E+00  3.58550000E+01  1.41421948E+01  0.00000000E+00
  343   1  0.0000E+00  3.72750000E+01  1.41421948E+01  0.00000000E+00
  344   1  0.0000E+00  3.79850000E+01  1.29124388E+01  0.00000000E+00
  345   1  0.0000E+00  3.51450000E+01  1.53719509E+01  0.00000000E+00
  346   1  0.0000E+00  3.58550000E+01  1.66017070E+01  0.00000000E+00
  347   1  0.0000E+00  3.72750000E+01  1.66017070E+01  0.00000000E+00
  348   1  0.0000E+00  3.79850000E+01  1.53719509E+01  0.00000000E+00
  349   1  0.0000E+00  3.51450000E+01  1.78314631E+01  0.00000000E+00
  350   1  0.0000E+00  3.58550000E+01  1.90612191E+01  0.00000000E+00
  351   1  0.0000E+00  3.72750000E+01  1.90612191E+01  0.00000000E+00
  352   1  0.0000E+00  3.79850000E+01  1.78314631E+01  0.00000000E+00
  353   1  0.0000E+00  3.51450000E+01  2.02909752E+01  0.00000000E+00
  354   1  0.0000E+00  3.58550000E+01  2.15207313E+01  0.00000000E+00
  355   1  0.0000E+00  3.72750000E+01  2.15207313E+01  0.00000000E+00
  356   1  0.0000E+00  3.79850000E+01  2.02909752E+01  0.00000000E+00
  357   1  0.0000E+00  3.51450000E+01  2.27504874E+01  0.00000000E+00
  358   1  0.0000E+00  3.58550000E+01  2.39802434E+01  0.00000000E+00
  359   1  0.0000E+00  3.72750000E+01  2.39802434E+01  0.00000000E+00
  360   1  0.0000E+00  3.79850000E+01  2.27504874E+01  0.00000000E+00
  361   1  0.0000E+00  3.94050000E+01  6.14878037E-01  0.00000000E+00
  362   1  0.0000E+00  4.01150000E+01  1.84463411E+00  0.00000000E+00
  363   1  0.0000E+00  4.15350000E+01  1.84463411E+00  0.00000000E+00
  364   2  0.0000E+00  4.22450000E+01  6.14878037E-01  0.00000000E+00
  365   1  0.0000E+00  3.94050000E+01  3.07439018E+00  0.00000000E+00
  366   1  0.0000E+00  4.01150000E+01  4.30414626E+00  0.00000000E+00
  367   1  0.0000E+00  4.15350000E+01  4.30414626E+00  0.00000000E+00
  368   1  0.0000E+00  4.22450000E+01  3.07439018E+00  0.00000000E+00
  369   1  0.0000E+00  3.94050000E+01  5.53390233E+00  0.00000000E+00
  370   1  0.0000E+00  4.01150000E+01  6.76365840E+00  0.00000000E+00
  371   1  0.0000E+00  4.15350000E+01  6.76365840E+00  0.00000000E+00
  372   1  0.0000E+00  4.22450000E+01  5.53390233E+00  0.00000000E+00
  373   1  0.0000E+00  3.94050000E+01  7.99341448E+00  0.00000000E+00
  374   1  0.0000E+00  4.01150000E+01  9.22317055E+00  0.00000000E+00
  375   1  0.0000E+00  4.15350000E+01  9.22317055E+00  0.00000000E+00
  376   1  0.0000E+00  4.22450000E+01  7.99341448E+00  0.00000000E+00
  377   1  0.0000E+00  3.94050000E+01  1.04529266E+01  0.00000000E+00
  378   1  0.0000E+00  4.01150000E+01  1.16826827E+01  0.00000000E+00
  379   1  0.0000E+00  4.15350000E+01  1.16826827E+01  0.00000000E+00
  380   1  0.0000E+00  4.22450000E+01  1.04529266E+01  0.00000000E+00
  381   1  0.0000E+00  3.94050000E+01  1.29124388E+01  0.00000000E+00
  382   1  0.0000E+00  4.01150000E+01  1.41421948E+01  0.00000000E+00
  383   1  0.0000E+00  4.15350000E+01  1.41421948E+01  0.00000000E+00
  384   1  0.0000E+00  4.22450000E+01  1.29124388E+01  0.00000000E+00
  385   1  0.0000E+00  3.94050000E+01  1.53719509E+01  0.00000000E+00
  386   1  0.0000E+00  4.01150000E+01  1.66017070E+01  0.00000000E+00
  387   1  0.0000E+00  4.15350000E+01  1.66017070E+01  0.00000000E+00
  388   1  0.0000E+00  4.22450000E+01  1.53719509E+01  0.00000000E+00
  389   1  0.0000E+00  3.94050000E+01  1.78314631E+01  0.00000000E+00
  390   1  0.0000E+00  4.01150000E+01  1.90612191E+01  0.00000000E+00
  391   1  0.0000E+00  4.15350000E+01  1.90612191E+01  0.00000000E+00
  392   1  0.0000E+00  4.22450000E+01  1.78314631E+01  0.00000000E+00
  393   1  0.0000E+00  3.94050000E+01  2.02909752E+01  0.00000000E+00
  394   1  0.0000E+00  4.01150000E+01  2.15207313E+01  0.00000000E+00
  395   1  0.0000E+00  4.15350000E+01  2.15207313E+01  0.00000000E+00
  396   1  0.0000E+00  4.22450000E+01  2.02909752E+01  0.00000000E+00
  397   1  0.0000E+00  3.94050000E+01  2.27504874E+01  0.00000000E+00
  398   1  0.0000E+00  4.01150000E+01  2.39802434E+01  0.00000000E+00
  399   2  0.0000E+00  4.15350000E+01  2.39802434E+01  0.00000000E+00
  400   1  0.0000E+00  4.22450000E+01  2.27504874E+01  0.00000000E+00

Velocities

    1  0.00000000E+00  0.00000000E+00  0.00000000E+00
    2  2.70177834E-03  6.49799242E-03  -6.30777972E-03
    3  -9.94155873E-03  -7.66007407E-03  -3.48968523E-04
    4  -1.20051684E-03  -1.09264713E-02  -7.20752260E-03
    5  1.55858610E-02  6.06712881E-03  -8.17250727E-03
    6  9.04152634E-03  -2.26200185E-03  9.68374184E-03
    7  -2.12353565E-03  4.61233109E-03  -1.08069868E-02
    8  7.02133120E-03  -1.90238537E-02  -1.20242306E-02
    9  5.29200662E-03  -1.41881173E-03  8.90964079E-03
   10  -1.02545869E-03  -7.44785047E-03  -1.74041516E-02
   11  7.61024842E-03  -1.62349826E-02  -6.48123257E-04
   12  -1.73917120E-02  -5.24146668E-03  1.09403253E-02
   13  -8.10465329E-03  -1.36468302E-04  3.61657722E-03
   14  5.00054240E-03  7.28299031E-03  -8.67672809E-03
   15  -5.99581255E-03  7.39870550E-04  4.32532523E-05
   16  -1.27898490E-02  -1.64043345E-03  6.83894162E-03
   17  -4.90240311E-03  1.65710174E-03  -5.26297683E-03
   18  5.72892328E-03  6.21694366E-03  -3.09849176E-03
   19  -3.19361500E-03  5.80000136E-03  -9.53621219E-03
   20  5.60952401E-04  -2.61846495E-04  5.54446463E-03
   21  2.25478966E-02  8.08008410E-03  -3.33465919E-03
   22  1.84611323E-03  -1.61738487E-02  -2.74906601E-03
   23  -5.30401891E-03  -4.65898140E-03  1.54546105E-02
   24  -3.51468539E-03  1.22452727E-02  -1.69579026E-02
   25  -1.32727388E-02  2.36833242E-04  1.78605417E-02
   26  7.84312803E-04  -2.36434631E-02  -2.93397307E-03
   27  -1.35925380E-02  -1.70772463E-02  9.08064555E-04
   28  -7.89817980E-03  -6.66997088E-04  -3.44605986E-03
   29  -7.64158890E-03  -8.63403685E-03  1.53170376E-03
   30  -9.39346109E-03  -6.51108082E-03  4.89955107E-03
   31  5.36629262E-03  5.69119537E-05  6.10219285E-03