 Hexagonal lattice structure of dimension 10 x 10 x 2 with a = 2.5115 and c = 6.9000
800 atoms
1 atom types

0.00000000E+00 2.51147367E+01 xlo xhi
0.00000000E+00 2.17500000E+01 ylo yhi
-2.03500000E+01 1.23450000E+02 zlo zhi

1.25573584E+01  0.00000000E+00  0.00000000E+00  xy xz yz

Atoms

    1   1  0.0000E+00  0.00000000E+00  0.00000000E+00  -1.03500000E+01
    2   1  0.0000E+00  1.25573684E+00  7.25000000E-01  -1.03500000E+01
    3   1  0.0000E+00  1.25573684E+00  7.25000000E-01  -6.90000000E+00
    4   1  0.0000E+00  2.51147367E+00  1.45000000E+00  -6.90000000E+00
    5   1  0.0000E+00  0.00000000E+00  0.00000000E+00  -3.45000000E+00
    6   1  0.0000E+00  1.25573684E+00  7.25000000E-01  -3.45000000E+00
    7   1  0.0000E+00  1.25573684E+00  7.25000000E-01  0.00000000E+00
    8   1  0.0000E+00  2.51147367E+00  1.45000000E+00  0.00000000E+00
    9   1  0.0000E+00  1.25573684E+00  2.17500000E+00  -1.03500000E+01
   10   1  0.0000E+00  2.51147367E+00  2.90000000E+00  -1.03500000E+01
   11   1  0.0000E+00  2.51147367E+00  2.90000000E+00  -6.90000000E+00
   12   1  0.0000E+00  3.76721051E+00  3.62500000E+00  -6.90000000E+00
   13   1  0.0000E+00  1.25573684E+00  2.17500000E+00  -3.45000000E+00
   14   1  0.0000E+00  2.51147367E+00  2.90000000E+00  -3.45000000E+00
   15   1  0.0000E+00  2.51147367E+00  2.90000000E+00  0.00000000E+00
   16   1  0.0000E+00  3.76721051E+00  3.62500000E+00  0.00000000E+00
   17   1  0.0000E+00  2.51147367E+00  4.35000000E+00  -1.03500000E+01
   18   1  0.0000E+00  3.76721051E+00  5.07500000E+00  -1.03500000E+01
   19   1  0.0000E+00  3.76721051E+00  5.07500000E+00  -6.90000000E+00
   20   1  0.0000E+00  5.02294734E+00  5.80000000E+00  -6.90000000E+00
   21   1  0.0000E+00  2.51147367E+00  4.35000000E+00  -3.45000000E+00
   22   1  0.0000E+00  3.76721051E+00  5.07500000E+00  -3.45000000E+00
   23   1  0.0000E+00  3.76721051E+00  5.07500000E+00  0.00000000E+00
   24   1  0.0000E+00  5.02294734E+00  5.80000000E+00  0.00000000E+00
   25   1  0.0000E+00  3.76721051E+00  6.52500000E+00  -1.03500000E+01
   26   1  0.0000E+00  5.02294734E+00  7.25000000E+00  -1.03500000E+01
   27   1  0.0000E+00  5.02294734E+00  7.25000000E+00  -6.90000000E+00
   28   1  0.0000E+00  6.27868418E+00  7.97500000E+00  -6.90000000E+00
   29   1  0.0000E+00  3.76721051E+00  6.52500000E+00  -3.45000000E+00
   30   1  0.0000E+00  5.02294734E+00  7.25000000E+00  -3.45000000E+00
   31   1  0.0000E+00  5.02294734E+00  7.25000000E+00  0.00000000E+00
   32   1  0.0000E+00  6.27868418E+00  7.97500000E+00  0.00000000E+00
   33   1  0.0000E+00  5.02294734E+00  8.70000000E+00  -1.03500000E+01
   34   1  0.0000E+00  6.27868418E+00  9.42500000E+00  -1.03500000E+01
   35   1  0.0000E+00  6.27868418E+00  9.42500000E+00  -6.90000000E+00
   36   1  0.0000E+00  7.53442101E+00  1.01500000E+01  -6.90000000E+00
   37   1  0.0000E+00  5.02294734E+00  8.70000000E+00  -3.45000000E+00
   38   1  0.0000E+00  6.27868418E+00  9.42500000E+00  -3.45000000E+00
   39   1  0.0000E+00  6.27868418E+00  9.42500000E+00  0.00000000E+00
   40   1  0.0000E+00  7.53442101E+00  1.01500000E+01  0.00000000E+00
   41   1  0.0000E+00  6.27868418E+00  1.08750000E+01  -1.03500000E+01
   42   1  0.0000E+00  7.53442101E+00  1.16000000E+01  -1.03500000E+01
   43   1  0.0000E+00  7.53442101E+00  1.16000000E+01  -6.90000000E+00
   44   1  0.0000E+00  8.79015785E+00  1.23250000E+01  -6.90000000E+00
   45   1  0.0000E+00  6.27868418E+00  1.08750000E+01  -3.45000000E+00
   46   1  0.0000E+00  7.53442101E+00  1.16000000E+01  -3.45000000E+00
   47   1  0.0000E+00  7.53442101E+00  1.16000000E+01  0.00000000E+00
   48   1  0.0000E+00  8.79015785E+00  1.23250000E+01  0.00000000E+00
   49   1  0.0000E+00  7.53442101E+00  1.30500000E+01  -1.03500000E+01
   50   1  0.0000E+00  8.79015785E+00  1.37750000E+01  -1.03500000E+01
   51   1  0.0000E+00  8.79015785E+00  1.37750000E+01  -6.90000000E+00
   52   1  0.0000E+00  1.00458947E+01  1.45000000E+01  -6.90000000E+00
   53   1  0.0000E+00  7.53442101E+00  1.30500000E+01  -3.45000000E+00
   54   1  0.0000E+00  8.79015785E+00  1.37750000E+01  -3.45000000E+00
   55   1  0.0000E+00  8.79015785E+00  1.37750000E+01  0.00000000E+00
   56   1  0.0000E+00  1.00458947E+01  1.45000000E+01  0.00000000E+00
   57   1  0.0000E+00  8.79015785E+00  1.52250000E+01  -1.03500000E+01
   58   1  0.0000E+00  1.00458947E+01  1.59500000E+01  -1.03500000E+01
   59   1  0.0000E+00  1.00458947E+01  1.59500000E+01  -6.90000000E+00
   60   1  0.0000E+00  1.13016315E+01  1.66750000E+01  -6.90000000E+00
   61   1  0.0000E+00  8.79015785E+00  1.52250000E+01  -3.45000000E+00
   62   1  0.0000E+00  1.00458947E+01  1.59500000E+01  -3.45000000E+00
   63   1  0.0000E+00  1.00458947E+01  1.59500000E+01  0.00000000E+00
   64   1  0.0000E+00  1.13016315E+01  1.66750000E+01  0.00000000E+00
   65   1  0.0000E+00  1.00458947E+01  1.74000000E+01  -1.03500000E+01
   66   1  0.0000E+00  1.13016315E+01  1.81250000E+01  -1.03500000E+01
   67   1  0.0000E+00  1.13016315E+01  1.81250000E+01  -6.90000000E+00
   68   1  0.0000E+00  1.25573684E+01  1.88500000E+01  -6.90000000E+00
   69   1  0.0000E+00  1.00458947E+01  1.74000000E+01  -3.45000000E+00
   70   1  0.0000E+00  1.13016315E+01  1.81250000E+01  -3.45000000E+00
   71   1  0.0000E+00  1.13016315E+01  1.81250000E+01  0.00000000E+00
   72   1  0.0000E+00  1.25573684E+01  1.88500000E+01  0.00000000E+00
   73   1  0.0000E+00  1.13016315E+01  1.95750000E+01  -1.03500000E+01
   74   1  0.0000E+00  1.25573684E+01  2.03000000E+01  -1.03500000E+01
   75   1  0.0000E+00  1.25573684E+01  2.03000000E+01  -6.90000000E+00
   76   1  0.0000E+00  1.38131052E+01  2.10250000E+01  -6.90000000E+00
   77   1  0.0000E+00  1.13016315E+01  1.95750000E+01  -3.45000000E+00
   78   1  0.0000E+00  1.25573684E+01  2.03000000E+01  -3.45000000E+00
   79   1  0.0000E+00  1.25573684E+01  2.03000000E+01  0.00000000E+00
   80   1  0.0000E+00  1.38131052E+01  2.10250000E+01  0.00000000E+00
   81   1  0.0000E+00  2.51147367E+00  0.00000000E+00  -1.03500000E+01
   82   1  0.0000E+00  3.76721051E+00  7.25000000E-01  -1.03500000E+01
   83   1  0.0000E+00  3.76721051E+00  7.25000000E-01  -6.90000000E+00
   84   1  0.0000E+00  5.02294734E+00  1.45000000E+00  -6.90000000E+00
   85   1  0.0000E+00  2.51147367E+00  0.00000000E+00  -3.45000000E+00
   86   1  0.0000E+00  3.76721051E+00  7.25000000E-01  -3.45000000E+00
   87   1  0.0000E+00  3.76721051E+00  7.25000000E-01  0.00000000E+00
   88   1  0.0000E+00  5.02294734E+00  1.45000000E+00  0.00000000E+00
   89   1  0.0000E+00  3.76721051E+00  2.17500000E+00  -1.03500000E+01
   90   1  0.0000E+00  5.02294734E+00  2.90000000E+00  -1.03500000E+01
   91   1  0.0000E+00  5.02294734E+00  2.90000000E+00  -6.90000000E+00
   92   1  0.0000E+00  6.27868418E+00  3.62500000E+00  -6.90000000E+00
   93   1  0.0000E+00  3.76721051E+00  2.17500000E+00  -3.45000000E+00
   94   1  0.0000E+00  5.02294734E+00  2.90000000E+00  -3.45000000E+00
   95   1  0.0000E+00  5.02294734E+00  2.90000000E+00  0.00000000E+00
   96   1  0.0000E+00  6.27868418E+00  3.62500000E+00  0.00000000E+00
   97   1  0.0000E+00  5.02294734E+00  4.35000000E+00  -1.03500000E+01
   98   1  0.0000E+00  6.27868418E+00  5.07500000E+00  -1.03500000E+01
   99   1  0.0000E+00  6.27868418E+00  5.07500000E+00  -6.90000000E+00
  100   1  0.0000E+00  7.53442101E+00  5.80000000E+00  -6.90000000E+00
  101   1  0.0000E+00  5.02294734E+00  4.35000000E+00  -3.45000000E+00
  102   1  0.0000E+00  6.27868418E+00  5.07500000E+00  -3.45000000E+00
  103   1  0.0000E+00  6.27868418E+00  5.07500000E+00  0.00000000E+00
  104   1  0.0000E+00  7.53442101E+00  5.80000000E+00  0.00000000E+00
  105   1  0.0000E+00  6.27868418E+00  6.52500000E+00  -1.03500000E+01
  106   1  0.0000E+00  7.53442101E+00  7.25000000E+00  -1.03500000E+01
  107   1  0.0000E+00  7.53442101E+00  7.25000000E+00  -6.90000000E+00
  108   1  0.0000E+00  8.79015785E+00  7.97500000E+00  -6.90000000E+00
  109   1  0.0000E+00  6.27868418E+00  6.52500000E+00  -3.45000000E+00
  110   1  0.0000E+00  7.53442101E+00  7.25000000E+00  -3.45000000E+00
  111   1  0.0000E+00  7.53442101E+00  7.25000000E+00  0.00000000E+00
  112   1  0.0000E+00  8.79015785E+00  7.97500000E+00  0.00000000E+00
  113   1  0.0000E+00  7.53442101E+00  8.70000000E+00  -1.03500000E+01
  114   1  0.0000E+00  8.79015785E+00  9.42500000E+00  -1.03500000E+01
  115   1  0.0000E+00  8.79015785E+00  9.42500000E+00  -6.90000000E+00
  116   1  0.0000E+00  1.00458947E+01  1.01500000E+01  -6.90000000E+00
  117   1  0.0000E+00  7.53442101E+00  8.70000000E+00  -3.45000000E+00
  118   1  0.0000E+00  8.79015785E+00  9.42500000E+00  -3.45000000E+00
  119   1  0.0000E+00  8.79015785E+00  9.42500000E+00  0.00000000E+00
  120   1  0.0000E+00  1.00458947E+01  1.01500000E+01  0.00000000E+00
  121   1  0.0000E+00  8.79015785E+00  1.08750000E+01  -1.03500000E+01
  122   1  0.0000E+00  1.00458947E+01  1.16000000E+01  -1.03500000E+01
  123   1  0.0000E+00  1.00458947E+01  1.16000000E+01  -6.90000000E+00
  124   1  0.0000E+00  1.13016315E+01  1.23250000E+01  -6.90000000E+00
  125   1  0.0000E+00  8.79015785E+00  1.08750000E+01  -3.45000000E+00
  126   1  0.0000E+00  1.00458947E+01  1.16000000E+01  -3.45000000E+00
  127   1  0.0000E+00  1.00458947E+01  1.16000000E+01  0.00000000E+00
  128   1  0.0000E+00  1.13016315E+01  1.23250000E+01  0.00000000E+00
  129   1  0.0000E+00  1.00458947E+01  1.30500000E+01  -1.03500000E+01
  130   1  0.0000E+00  1.13016315E+01  1.37750000E+01  -1.03500000E+01
  131   1  0.0000E+00  1.13016315E+01  1.37750000E+01  -6.90000000E+00
  132   1  0.0000E+00  1.25573684E+01  1.45000000E+01  -6.90000000E+00
  133   1  0.0000E+00  1.00458947E+01  1.30500000E+01  -3.45000000E+00
  134   1  0.0000E+00  1.13016315E+01  1.37750000E+01  -3.45000000E+00
  135   1  0.0000E+00  1.13016315E+01  1.37750000E+01  0.00000000E+00
  136   1  0.0000E+00  1.25573684E+01  1.45000000E+01  0.00000000E+00
  137   1  0.0000E+00  1.13016315E+01  1.52250000E+01  -1.03500000E+01
  138   1  0.0000E+00  1.25573684E+01  1.59500000E+01  -1.03500000E+01
  139   1  0.0000E+00  1.25573684E+01  1.59500000E+01  -6.90000000E+00
  140   1  0.0000E+00  1.38131052E+01  1.66750000E+01  -6.90000000E+00
  141   1  0.0000E+00  1.13016315E+01  1.52250000E+01  -3.45000000E+00
  142   1  0.0000E+00  1.25573684E+01  1.59500000E+01  -3.45000000E+00
  143   1  0.0000E+00  1.25573684E+01  1.59500000E+01  0.00000000E+00
  144   1  0.0000E+00  1.38131052E+01  1.66750000E+01  0.00000000E+00
  145   1  0.0000E+00  1.25573684E+01  1.74000000E+01  -1.03500000E+01
  146   1  0.0000E+00  1.38131052E+01  1.81250000E+01  -1.03500000E+01
  147   1  0.0000E+00  1.38131052E+01  1.81250000E+01  -6.90000000E+00
  148   1  0.0000E+00  1.50688420E+01  1.88500000E+01  -6.90000000E+00
  149   1  0.0000E+00  1.25573684E+01  1.74000000E+01  -3.45000000E+00
  150   1  0.0000E+00  1.38131052E+01  1.81250000E+01  -3.45000000E+00
  151   1  0.0000E+00  1.38131052E+01  1.81250000E+01  0.00000000E+00
  152   1  0.0000E+00  1.50688420E+01  1.88500000E+01  0.00000000E+00
  153   1  0.0000E+00  1.38131052E+01  1.95750000E+01  -1.03500000E+01
  154   1  0.0000E+00  1.50688420E+01  2.03000000E+01  -1.03500000E+01
  155   1  0.0000E+00  1.50688420E+01  2.03000000E+01  -6.90000000E+00
  156   1  0.0000E+00  1.63245789E+01  2.10250000E+01  -6.90000000E+00
  157   1  0.0000E+00  1.38131052E+01  1.95750000E+01  -3.45000000E+00
  158   1  0.0000E+00  1.50688420E+01  2.03000000E+01  -3.45000000E+00
  159   1  0.0000E+00  1.50688420E+01  2.03000000E+01  0.00000000E+00
  160   1  0.0000E+00  1.63245789E+01  2.10250000E+01  0.00000000E+00
  161   1  0.0000E+00  5.02294734E+00  0.00000000E+00  -1.03500000E+01
  162   1  0.0000E+00  6.27868418E+00  7.25000000E-01  -1.03500000E+01
  163   1  0.0000E+00  6.27868418E+00  7.25000000E-01  -6.90000000E+00
  164   1  0.0000E+00  7.53442101E+00  1.45000000E+00  -6.90000000E+00
  165   1  0.0000E+00  5.02294734E+00  0.00000000E+00  -3.45000000E+00
  166   1  0.0000E+00  6.27868418E+00  7.25000000E-01  -3.45000000E+00
  167   1  0.0000E+00  6.27868418E+00  7.25000000E-01  0.00000000E+00
  168   1  0.0000E+00  7.53442101E+00  1.45000000E+00  0.00000000E+00
  169   1  0.0000E+00  6.27868418E+00  2.17500000E+00  -1.03500000E+01
  170   1  0.0000E+00  7.53442101E+00  2.90000000E+00  -1.03500000E+01
  171   1  0.0000E+00  7.53442101E+00  2.90000000E+00  -6.90000000E+00
  172   1  0.0000E+00  8.79015785E+00  3.62500000E+00  -6.90000000E+00
  173   1  0.0000E+00  6.27868418E+00  2.17500000E+00  -3.45000000E+00
  174   1  0.0000E+00  7.53442101E+00  2.90000000E+00  -3.45000000E+00
  175   1  0.0000E+00  7.53442101E+00  2.90000000E+00  0.00000000E+00
  176   1  0.0000E+00  8.79015785E+00  3.62500000E+00  0.00000000E+00
  177   1  0.0000E+00  7.53442101E+00  4.35000000E+00  -1.03500000E+01
  178   1  0.0000E+00  8.79015785E+00  5.07500000E+00  -1.03500000E+01
  179   1  0.0000E+00  8.79015785E+00  5.07500000E+00  -6.90000000E+00
  180   1  0.0000E+00  1.00458947E+01  5.80000000E+00  -6.90000000E+00
  181   1  0.0000E+00  7.53442101E+00  4.35000000E+00  -3.45000000E+00
  182   1  0.0000E+00  8.79015785E+00  5.07500000E+00  -3.45000000E+00
  183   1  0.0000E+00  8.79015785E+00  5.07500000E+00  0.00000000E+00
  184   1  0.0000E+00  1.00458947E+01  5.80000000E+00  0.00000000E+00
  185   1  0.0000E+00  8.79015785E+00  6.52500000E+00  -1.03500000E+01
  186   1  0.0000E+00  1.00458947E+01  7.25000000E+00  -1.03500000E+01
  187   1  0.0000E+00  1.00458947E+01  7.25000000E+00  -6.90000000E+00
  188   1  0.0000E+00  1.13016315E+01  7.97500000E+00  -6.90000000E+00
  189   1  0.0000E+00  8.79015785E+00  6.52500000E+00  -3.45000000E+00
  190   1  0.0000E+00  1.00458947E+01  7.25000000E+00  -3.45000000E+00
  191   1  0.0000E+00  1.00458947E+01  7.25000000E+00  0.00000000E+00
  192   1  0.0000E+00  1.13016315E+01  7.97500000E+00  0.00000000E+00
  193   1  0.0000E+00  1.00458947E+01  8.70000000E+00  -1.03500000E+01
  194   1  0.0000E+00  1.13016315E+01  9.42500000E+00  -1.03500000E+01
  195   1  0.0000E+00  1.13016315E+01  9.42500000E+00  -6.90000000E+00
  196   1  0.0000E+00  1.25573684E+01  1.01500000E+01  -6.90000000E+00
  197   1  0.0000E+00  1.00458947E+01  8.70000000E+00  -3.45000000E+00
  198   1  0.0000E+00  1.13016315E+01  9.42500000E+00  -3.45000000E+00
  199   1  0.0000E+00  1.13016315E+01  9.42500000E+00  0.00000000E+00
  200   1  0.0000E+00  1.25573684E+01  1.01500000E+01  0.00000000E+00
  201   1  0.0000E+00  1.13016315E+01  1.08750000E+01  -1.03500000E+01
  202   1  0.0000E+00  1.25573684E+01  1.16000000E+01  -1.03500000E+01
  203   1  0.0000E+00  1.25573684E+01  1.16000000E+01  -6.90000000E+00
  204   1  0.0000E+00  1.38131052E+01  1.23250000E+01  -6.90000000E+00
  205   1  0.0000E+00  1.13016315E+01  1.08750000E+01  -3.45000000E+00
  206   1  0.0000E+00  1.25573684E+01  1.16000000E+01  -3.45000000E+00
  207   1  0.0000E+00  1.25573684E+01  1.16000000E+01  0.00000000E+00
  208   1  0.0000E+00  1.38131052E+01  1.23250000E+01  0.00000000E+00
  209   1  0.0000E+00  1.25573684E+01  1.30500000E+01  -1.03500000E+01
  210   1  0.0000E+00  1.38131052E+01  1.37750000E+01  -1.03500000E+01
  211   1  0.0000E+00  1.38131052E+01  1.37750000E+01  -6.90000000E+00
  212   1  0.0000E+00  1.50688420E+01  1.45000000E+01  -6.90000000E+00
  213   1  0.0000E+00  1.25573684E+01  1.30500000E+01  -3.45000000E+00
  214   1  0.0000E+00  1.38131052E+01  1.37750000E+01  -3.45000000E+00
  215   1  0.0000E+00  1.38131052E+01  1.37750000E+01  0.00000000E+00
  216   1  0.0000E+00  1.50688420E+01  1.45000000E+01  0.00000000E+00
  217   1  0.0000E+00  1.38131052E+01  1.52250000E+01  -1.03500000E+01
  218   1  0.0000E+00  1.50688420E+01  1.59500000E+01  -1.03500000E+01
  219   1  0.0000E+00  1.50688420E+01  1.59500000E+01  -6.90000000E+00
  220   1  0.0000E+00  1.63245789E+01  1.66750000E+01  -6.90000000E+00
  221   1  0.0000E+00  1.38131052E+01  1.52250000E+01  -3.45000000E+00
  222   1  0.0000E+00  1.50688420E+01  1.59500000E+01  -3.45000000E+00
  223   1  0.0000E+00  1.50688420E+01  1.59500000E+01  0.00000000E+00
  224   1  0.0000E+00  1.63245789E+01  1.66750000E+01  0.00000000E+00
  225   1  0.0000E+00  1.50688420E+01  1.74000000E+01  -1.03500000E+01
  226   1  0.0000E+00  1.63245789E+01  1.81250000E+01  -1.03500000E+01
  227   1  0.0000E+00  1.63245789E+01  1.81250000E+01  -6.90000000E+00
  228   1  0.0000E+00  1.75803157E+01  1.88500000E+01  -6.90000000E+00
  229   1  0.0000E+00  1.50688420E+01  1.74000000E+01  -3.45000000E+00
  230   1  0.0000E+00  1.63245789E+01  1.81250000E+01  -3.45000000E+00
  231   1  0.0000E+00  1.63245789E+01  1.81250000E+01  0.00000000E+00
  232   1  0.0000E+00  1.75803157E+01  1.88500000E+01  0.00000000E+00
  233   1  0.0000E+00  1.63245789E+01  1.95750000E+01  -1.03500000E+01
  234   1  0.0000E+00  1.75803157E+01  2.03000000E+01  -1.03500000E+01
  235   1  0.0000E+00  1.75803157E+01  2.03000000E+01  -6.90000000E+00
  236   1  0.0000E+00  1.88360525E+01  2.10250000E+01  -6.90000000E+00
  237   1  0.0000E+00  1.63245789E+01  1.95750000E+01  -3.45000000E+00
  238   1  0.0000E+00  1.75803157E+01  2.03000000E+01  -3.45000000E+00
  239   1  0.0000E+00  1.75803157E+01  2.03000000E+01  0.00000000E+00
  240   1  0.0000E+00  1.88360525E+01  2.10250000E+01  0.00000000E+00
  241   1  0.0000E+00  7.53442101E+00  0.00000000E+00  -1.03500000E+01
  242   1  0.0000E+00  8.79015785E+00  7.25000000E-01  -1.03500000E+01
  243   1  0.0000E+00  8.79015785E+00  7.25000000E-01  -6.90000000E+00
  244   1  0.0000E+00  1.00458947E+01  1.45000000E+00  -6.90000000E+00
  245   1  0.0000E+00  7.53442101E+00  0.00000000E+00  -3.45000000E+00
  246   1  0.0000E+00  8.79015785E+00  7.25000000E-01  -3.45000000E+00
  247   1  0.0000E+00  8.79015785E+00  7.25000000E-01  0.00000000E+00
  248   1  0.0000E+00  1.00458947E+01  1.45000000E+00  0.00000000E+00
  249   1  0.0000E+00  8.79015785E+00  2.17500000E+00  -1.03500000E+01
  250   1  0.0000E+00  1.00458947E+01  2.90000000E+00  -1.03500000E+01
  251   1  0.0000E+00  1.00458947E+01  2.90000000E+00  -6.90000000E+00
  252   1  0.0000E+00  1.13016315E+01  3.62500000E+00  -6.90000000E+00
  253   1  0.0000E+00  8.79015785E+00  2.17500000E+00  -3.45000000E+00
  254   1  0.0000E+00  1.00458947E+01  2.90000000E+00  -3.45000000E+00
  255   1  0.0000E+00  1.00458947E+01  2.90000000E+00  0.00000000E+00
  256   1  0.0000E+00  1.13016315E+01  3.62500000E+00  0.00000000E+00
  257   1  0.0000E+00  1.00458947E+01  4.35000000E+00  -1.03500000E+01
  258   1  0.0000E+00  1.13016315E+01  5.07500000E+00  -1.03500000E+01
  259   1  0.0000E+00  1.13016315E+01  5.07500000E+00  -6.90000000E+00
  260   1  0.0000E+00  1.25573684E+01  5.80000000E+00  -6.90000000E+00
  261   1  0.0000E+00  1.00458947E+01  4.35000000E+00  -3.45000000E+00
  262   1  0.0000E+00  1.13016315E+01  5.07500000E+00  -3.45000000E+00
  263   1  0.0000E+00  1.13016315E+01  5.07500000E+00  0.00000000E+00
  264   1  0.0000E+00  1.25573684E+01  5.80000000E+00  0.00000000E+00
  265   1  0.0000E+00  1.13016315E+01  6.52500000E+00  -1.03500000E+01
  266   1  0.0000E+00  1.25573684E+01  7.25000000E+00  -1.03500000E+01
  267   1  0.0000E+00  1.25573684E+01  7.25000000E+00  -6.90000000E+00
  268   1  0.0000E+00  1.38131052E+01  7.97500000E+00  -6.90000000E+00
  269   1  0.0000E+00  1.13016315E+01  6.52500000E+00  -3.45000000E+00
  270   1  0.0000E+00  1.25573684E+01  7.25000000E+00  -3.45000000E+00
  271   1  0.0000E+00  1.25573684E+01  7.25000000E+00  0.00000000E+00
  272   1  0.0000E+00  1.38131052E+01  7.97500000E+00  0.00000000E+00
  273   1  0.0000E+00  1.25573684E+01  8.70000000E+00  -1.03500000E+01
  274   1  0.0000E+00  1.38131052E+01  9.42500000E+00  -1.03500000E+01
  275   1  0.0000E+00  1.38131052E+01  9.42500000E+00  -6.90000000E+00
  276   1  0.0000E+00  1.50688420E+01  1.01500000E+01  -6.90000000E+00
  277   1  0.0000E+00  1.25573684E+01  8.70000000E+00  -3.45000000E+00
  278   1  0.0000E+00  1.38131052E+01  9.42500000E+00  -3.45000000E+00
  279   1  0.0000E+00  1.38131052E+01  9.42500000E+00  0.00000000E+00
  280   1  0.0000E+00  1.50688420E+01  1.01500000E+01  0.00000000E+00
  281   1  0.0000E+00  1.38131052E+01  1.08750000E+01  -1.03500000E+01
  282   1  0.0000E+00  1.50688420E+01  1.16000000E+01  -1.03500000E+01
  283   1  0.0000E+00  1.50688420E+01  1.16000000E+01  -6.90000000E+00
  284   1  0.0000E+00  1.63245789E+01  1.23250000E+01  -6.90000000E+00
  285   1  0.0000E+00  1.38131052E+01  1.08750000E+01  -3.45000000E+00
  286   1  0.0000E+00  1.50688420E+01  1.16000000E+01  -3.45000000E+00
  287   1  0.0000E+00  1.50688420E+01  1.16000000E+01  0.00000000E+00
  288   1  0.0000E+00  1.63245789E+01  1.23250000E+01  0.00000000E+00
  289   1  0.0000E+00  1.50688420E+01  1.30500000E+01  -1.03500000E+01
  290   1  0.0000E+00  1.63245789E+01  1.37750000E+01  -1.03500000E+01
  291   1  0.0000E+00  1.63245789E+01  1.37750000E+01  -6.90000000E+00
  292   1  0.0000E+00  1.75803157E+01  1.45000000E+01  -6.90000000E+00
  293   1  0.0000E+00  1.50688420E+01  1.30500000E+01  -3.45000000E+00
  294   1  0.0000E+00  1.63245789E+01  1.37750000E+01  -3.45000000E+00
  295   1  0.0000E+00  1.63245789E+01  1.37750000E+01  0.00000000E+00
  296   1  0.0000E+00  1.75803157E+01  1.45000000E+01  0.00000000E+00
  297   1  0.0000E+00  1.63245789E+01  1.52250000E+01  -1.03500000E+01
  298   1  0.0000E+00  1.75803157E+01  1.59500000E+01  -1.03500000E+01
  299   1  0.0000E+00  1.75803157E+01  1.59500000E+01  -6.90000000E+00
  300   1  0.0000E+00  1.88360525E+01  1.66750000E+01  -6.90000000E+00
  301   1  0.0000E+00  1.63245789E+01  1.52250000E+01  -3.45000000E+00
  302   1  0.0000E+00  1.75803157E+01  1.59500000E+01  -3.45000000E+00
  303   1  0.0000E+00  1.75803157E+01  1.59500000E+01  0.00000000E+00
  304   1  0.0000E+00  1.88360525E+01  1.66750000E+01  0.00000000E+00
  305   1  0.0000E+00  1.75803157E+01  1.74000000E+01  -1.03500000E+01
  306   1  0.0000E+00  1.88360525E+01  1.81250000E+01  -1.03500000E+01
  307   1  0.0000E+00  1.88360525E+01  1.81250000E+01  -6.90000000E+00
  308   1  0.0000E+00  2.00917894E+01  1.88500000E+01  -6.90000000E+00
  309   1  0.0000E+00  1.75803157E+01  1.74000000E+01  -3.45000000E+00
  310   1  0.0000E+00  1.88360525E+01  1.81250000E+01  -3.45000000E+00
  311   1  0.0000E+00  1.88360525E+01  1.81250000E+01  0.00000000E+00
  312   1  0.0000E+00  2.00917894E+01  1.88500000E+01  0.00000000E+00
  313   1  0.0000E+00  1.88360525E+01  1.95750000E+01  -1.03500000E+01
  314   1  0.0000E+00  2.00917894E+01  2.03000000E+01  -1.03500000E+01
  315   1  0.0000E+00  2.00917894E+01  2.03000000E+01  -6.90000000E+00
  316   1  0.0000E+00  2.13475262E+01  2.10250000E+01  -6.90000000E+00
  317   1  0.0000E+00  1.88360525E+01  1.95750000E+01  -3.45000000E+00
  318   1  0.0000E+00  2.00917894E+01  2.03000000E+01  -3.45000000E+00
  319   1  0.0000E+00  2.00917894E+01  2.03000000E+01  0.00000000E+00
  320   1  0.0000E+00  2.13475262E+01  2.10250000E+01  0.00000000E+00
  321   1  0.0000E+00  1.00458947E+01  0.00000000E+00  -1.03500000E+01
  322   1  0.0000E+00  1.13016315E+01  7.25000000E-01  -1.03500000E+01
  323   1  0.0000E+00  1.13016315E+01  7.25000000E-01  -6.90000000E+00
  324   1  0.0000E+00  1.25573684E+01  1.45000000E+00  -6.90000000E+00
  325   1  0.0000E+00  1.00458947E+01  0.00000000E+00  -3.45000000E+00
  326   1  0.0000E+00  1.13016315E+01  7.25000000E-01  -3.45000000E+00
  327   1  0.0000E+00  1.13016315E+01  7.25000000E-01  0.00000000E+00
  328   1  0.0000E+00  1.25573684E+01  1.45000000E+00  0.00000000E+00
  329   1  0.0000E+00  1.13016315E+01  2.17500000E+00  -1.03500000E+01
  330   1  0.0000E+00  1.25573684E+01  2.90000000E+00  -1.03500000E+01
  331   1  0.0000E+00  1.25573684E+01  2.90000000E+00  -6.90000000E+00
  332   1  0.0000E+00  1.38131052E+01  3.62500000E+00  -6.90000000E+00
  333   1  0.0000E+00  1.13016315E+01  2.17500000E+00  -3.45000000E+00
  334   1  0.0000E+00  1.25573684E+01  2.90000000E+00  -3.45000000E+00
  335   1  0.0000E+00  1.25573684E+01  2.90000000E+00  0.00000000E+00
  336   1  0.0000E+00  1.38131052E+01  3.62500000E+00  0.00000000E+00
  337   1  0.0000E+00  1.25573684E+01  4.35000000E+00  -1.03500000E+01
  338   1  0.0000E+00  1.38131052E+01  5.07500000E+00  -1.03500000E+01
  339   1  0.0000E+00  1.38131052E+01  5.07500000E+00  -6.90000000E+00
  340   1  0.0000E+00  1.50688420E+01  5.80000000E+00  -6.90000000E+00
  341   1  0.0000E+00  1.25573684E+01  4.35000000E+00  -3.45000000E+00
  342   1  0.0000E+00  1.38131052E+01  5.07500000E+00  -3.45000000E+00
  343   1  0.0000E+00  1.38131052E+01  5.07500000E+00  0.00000000E+00
  344   1  0.0000E+00  1.50688420E+01  5.80000000E+00  0.00000000E+00
  345   1  0.0000E+00  1.38131052E+01  6.52500000E+00  -1.03500000E+01
  346   1  0.0000E+00  1.50688420E+01  7.25000000E+00  -1.03500000E+01
  347   1  0.0000E+00  1.50688420E+01  7.25000000E+00  -6.90000000E+00
  348   1  0.0000E+00  1.63245789E+01  7.97500000E+00  -6.90000000E+00
  349   1  0.0000E+00  1.38131052E+01  6.52500000E+00  -3.45000000E+00
  350   1  0.0000E+00  1.50688420E+01  7.25000000E+00  -3.45000000E+00
  351   1  0.0000E+00  1.50688420E+01  7.25000000E+00  0.00000000E+00
  352   1  0.0000E+00  1.63245789E+01  7.97500000E+00  0.00000000E+00
  353   1  0.0000E+00  1.50688420E+01  8.70000000E+00  -1.03500000E+01
  354   1  0.0000E+00  1.63245789E+01  9.42500000E+00  -1.03500000E+01
  355   1  0.0000E+00  1.63245789E+01  9.42500000E+00  -6.90000000E+00
  356   1  0.0000E+00  1.75803157E+01  1.01500000E+01  -6.90000000E+00
  357   1  0.0000E+00  1.50688420E+01  8.70000000E+00  -3.45000000E+00
  358   1  0.0000E+00  1.63245789E+01  9.42500000E+00  -3.45000000E+00
  359   1  0.0000E+00  1.63245789E+01  9.42500000E+00  0.00000000E+00
  360   1  0.0000E+00  1.75803157E+01  1.01500000E+01  0.00000000E+00
  361   1  0.0000E+00  1.63245789E+01  1.08750000E+01  -1.03500000E+01
  362   1  0.0000E+00  1.75803157E+01  1.16000000E+01  -1.03500000E+01
  363   1  0.0000E+00  1.75803157E+01  1.16000000E+01  -6.90000000E+00
  364   1  0.0000E+00  1.88360525E+01  1.23250000E+01  -6.90000000E+00
  365   1  0.0000E+00  1.63245789E+01  1.08750000E+01  -3.45000000E+00
  366   1  0.0000E+00  1.75803157E+01  1.16000000E+01  -3.45000000E+00
  367   1  0.0000E+00  1.75803157E+01  1.16000000E+01  0.00000000E+00
  368   1  0.0000E+00  1.88360525E+01  1.23250000E+01  0.00000000E+00
  369   1  0.0000E+00  1.75803157E+01  1.30500000E+01  -1.03500000E+01
  370   1  0.0000E+00  1.88360525E+01  1.37750000E+01  -1.03500000E+01
  371   1  0.0000E+00  1.88360525E+01  1.37750000E+01  -6.90000000E+00
  372   1  0.0000E+00  2.00917894E+01  1.45000000E+01  -6.90000000E+00
  373   1  0.0000E+00  1.75803157E+01  1.30500000E+01  -3.45000000E+00
  374   1  0.0000E+00  1.88360525E+01  1.37750000E+01  -3.45000000E+00
  375   1  0.0000E+00  1.88360525E+01  1.37750000E+01  0.00000000E+00
  376   1  0.0000E+00  2.00917894E+01  1.45000000E+01  0.00000000E+00
  377   1  0.0000E+00  1.88360525E+01  1.52250000E+01  -1.03500000E+01
  378   1  0.0000E+00  2.00917894E+01  1.59500000E+01  -1.03500000E+01
  379   1  0.0000E+00  2.00917894E+01  1.59500000E+01  -6.90000000E+00
  380   1  0.0000E+00  2.13475262E+01  1.66750000E+01  -6.90000000E+00
  381   1  0.0000E+00  1.88360525E+01  1.52250000E+01  -3.45000000E+00
  382   1  0.0000E+00  2.00917894E+01  1.59500000E+01  -3.45000000E+00
  383   1  0.0000E+00  2.00917894E+01  1.59500000E+01  0.00000000E+00
  384   1  0.0000E+00  2.13475262E+01  1.66750000E+01  0.00000000E+00
  385   1  0.0000E+00  2.00917894E+01  1.74000000E+01  -1.03500000E+01
  386   1  0.0000E+00  2.13475262E+01  1.81250000E+01  -1.03500000E+01
  387   1  0.0000E+00  2.13475262E+01  1.81250000E+01  -6.90000000E+00
  388   1  0.0000E+00  2.26032630E+01  1.88500000E+01  -6.90000000E+00
  389   1  0.0000E+00  2.00917894E+01  1.74000000E+01  -3.45000000E+00
  390   1  0.0000E+00  2.13475262E+01  1.81250000E+01  -3.45000000E+00
  391   1  0.0000E+00  2.13475262E+01  1.81250000E+01  0.00000000E+00
  392   1  0.0000E+00  2.26032630E+01  1.88500000E+01  0.00000000E+00
  393   1  0.0000E+00  2.13475262E+01  1.95750000E+01  -1.03500000E+01
  394   1  0.0000E+00  2.26032630E+01  2.03000000E+01  -1.03500000E+01
  395   1  0.0000E+00  2.26032630E+01  2.03000000E+01  -6.90000000E+00
  396   1  0.0000E+00  2.38589999E+01  2.10250000E+01  -6.90000000E+00
  397   1  0.0000E+00  2.13475262E+01  1.95750000E+01  -3.45000000E+00
  398   1  0.0000E+00  2.26032630E+01  2.03000000E+01  -3.45000000E+00
  399   1  0.0000E+00  2.26032630E+01  2.03000000E+01  0.00000000E+00
  400   1  0.0000E+00  2.38589999E+01  2.10250000E+01  0.00000000E+00
  401   1  0.0000E+00  1.25573684E+01  0.00000000E+00  -1.03500000E+01
  402   1  0.0000E+00  1.38131052E+01  7.25000000E-01  -1.03500000E+01
  403   1  0.0000E+00  1.38131052E+01  7.25000000E-01  -6.90000000E+00
  404   1  0.0000E+00  1.50688420E+01  1.45000000E+00  -6.90000000E+00
  405   1  0.0000E+00  1.25573684E+01  0.00000000E+00  -3.45000000E+00
  406   1  0.0000E+00  1.38131052E+01  7.25000000E-01  -3.45000000E+00
  407   1  0.0000E+00  1.38131052E+01  7.25000000E-01  0.00000000E+00
  408   1  0.0000E+00  1.50688420E+01  1.45000000E+00  0.00000000E+00
  409   1  0.0000E+00  1.38131052E+01  2.17500000E+00  -1.03500000E+01
  410   1  0.0000E+00  1.50688420E+01  2.90000000E+00  -1.03500000E+01
  411   1  0.0000E+00  1.50688420E+01  2.90000000E+00  -6.90000000E+00
  412   1  0.0000E+00  1.63245789E+01  3.62500000E+00  -6.90000000E+00
  413   1  0.0000E+00  1.38131052E+01  2.17500000E+00  -3.45000000E+00
  414   1  0.0000E+00  1.50688420E+01  2.90000000E+00  -3.45000000E+00
  415   1  0.0000E+00  1.50688420E+01  2.90000000E+00  0.00000000E+00
  416   1  0.0000E+00  1.63245789E+01  3.62500000E+00  0.00000000E+00
  417   1  0.0000E+00  1.50688420E+01  4.35000000E+00  -1.03500000E+01
  418   1  0.0000E+00  1.63245789E+01  5.07500000E+00  -1.03500000E+01
  419   1  0.0000E+00  1.63245789E+01  5.07500000E+00  -6.90000000E+00