ITEM: TIMESTEP
10000
ITEM: NUMBER OF ATOMS
480
ITEM: BOX BOUNDS pp pp ff
0.0000000000000000e+00 4.3317000000000000e+01
0.0000000000000000e+00 3.0010897900000000e+01
-1.1581350000000000e+01 4.1581350000000000e+01
ITEM: ATOMS id type element q x y z vx vy vz
1 2 C -1.32125e-06 1.08292 0.625227 0 0 0 0
2 1 C -1.85674e-07 1.83219 1.85621 -0.0480479 0.00153223 0.00100445 -0.00807488
3 1 C -5.85852e-08 3.2817 1.88292 -0.0219342 0.00735204 -0.00137935 0.00293959
4 1 C -1.71324e-06 3.99764 0.622907 0.0313182 0.00554545 -0.000934051 0.00053788
5 1 C 9.09107e-07 1.06882 3.10714 -0.0774275 0.0039787 0.00242818 -0.00677876
6 1 C -3.05439e-06 1.75653 4.35391 -0.141463 -0.0123831 0.0045611 0.000567545
7 1 C 5.12698e-07 3.22647 4.39493 -0.076618 -0.00183621 -0.00409069 0.00387195
8 1 C -4.77721e-06 3.97501 3.16753 -0.0208186 0.00230341 0.00346468 0.000853549
9 1 C 6.14662e-07 1.04155 5.61155 -0.133068 -0.00146088 -0.00550489 -0.00320232
10 1 C -5.48705e-07 1.77897 6.86049 -0.0964793 0.00249803 -0.00167158 0.0014758
11 1 C 1.67454e-06 3.21337 6.89308 -0.182945 8.60683e-05 -0.00579785 -0.00483741
12 1 C -3.47539e-06 3.95176 5.65688 -0.116893 0.0088504 0.00186281 0.00112091
13 1 C -3.9923e-07 1.04644 8.11705 -0.0691489 -2.53199e-05 -0.00364178 -0.00331049
14 1 C 3.91044e-06 1.75847 9.36204 -0.0152865 -0.0035783 0.00844415 -0.00567311
15 1 C -2.8718e-06 3.2247 9.38036 -0.0457399 -0.00139024 0.002855 -0.00503595
16 1 C -8.95212e-08 3.95197 8.12482 -0.103731 -0.00237799 0.00290723 -0.00868997
17 1 C -4.04848e-06 1.02658 10.5937 -0.0495875 0.00421694 -0.000422714 0.00593347
18 1 C 2.76387e-06 1.75864 11.8255 -0.199352 0.00661433 -0.00925927 0.00108843
19 1 C -1.52509e-06 3.1764 11.8583 -0.106492 -0.00380768 0.00131991 0.00238979
20 1 C 3.37463e-06 3.93874 10.6024 -0.0923655 0.0135183 0.00159244 0.00115152
21 1 C -6.36286e-06 1.02237 13.1095 -0.164707 -0.00136436 -0.00208323 -0.00300194
22 1 C 1.47809e-06 1.72622 14.3523 -0.0969013 -0.00738462 0.000781601 -0.00830286
23 1 C 6.32437e-07 3.16873 14.3734 -0.0830647 -0.000473494 0.0079204 -0.00130698
24 1 C 2.22589e-06 3.89428 13.107 -0.0271011 -0.00627274 -0.00555295 -0.00315859
25 1 C -5.26955e-06 1.05195 15.6615 -0.101317 0.00392963 -0.00676909 0.0024406
26 1 C 3.13047e-06 1.76759 16.9006 -0.122311 0.000574725 0.00722664 -0.00162346
27 1 C -8.34818e-06 3.21748 16.896 -0.0175436 -0.0012183 -0.00268421 -0.00528271
28 1 C 5.22316e-06 3.88141 15.6296 -0.0371138 0.00211711 -0.00534028 0.00124124
29 1 C -6.13915e-06 1.06526 18.1612 -0.0704092 -0.00548273 0.00138098 0.00674069
30 1 C 7.31184e-06 1.78396 19.4143 -0.0430353 0.00394278 -0.00188399 0.00112976
31 1 C -6.56383e-06 3.23064 19.4231 -0.105858 -0.00290606 -0.00533285 -0.00414821
32 1 C 6.84021e-06 3.92287 18.1689 -0.09322 -0.00767318 -0.00277886 -0.00464177
33 1 C -6.38766e-06 1.04025 20.6663 0.102687 0.00546868 0.00179112 0.0028287
34 1 C 6.38306e-06 1.79068 21.8748 0.191301 -0.00180307 0.00328722 0.00248209
35 1 C -5.55485e-06 3.22528 21.903 0.128508 0.00677959 0.000263568 0.0041747
36 1 C 5.73182e-06 3.96375 20.6521 -0.0231511 -0.00187424 -0.000756376 0.00391609
37 1 C -7.37447e-06 1.06494 23.1648 0.294584 0.00208172 -0.000778794 0.000534042
38 1 C 5.3295e-06 1.7806 24.4189 0.252102 0.00334219 0.00360586 0.00143812
39 1 C -1.62154e-06 3.22685 24.3508 0.129678 0.00450228 -0.00356036 -0.00503769
40 1 C 1.98357e-06 3.97969 23.1211 0.0382736 0.00509204 0.00312758 -0.0011922
41 1 C -7.38824e-06 1.0638 25.6589 0.167158 -0.00577808 -0.00442149 -0.00579604
42 1 C 3.48774e-06 1.83151 26.9074 0.252299 -0.00260984 -0.00480688 -0.00231282
43 1 C 9.0856e-07 3.2762 26.8628 0.245725 0.00184709 -0.00399173 -0.000836875
44 1 C 2.56941e-06 3.93606 25.5906 0.237221 -0.00141237 0.00144823 -0.00605515
45 1 C -5.8619e-06 1.08689 28.1324 0.156393 -0.00253211 0.00374132 0.00581285
46 2 C 7.02291e-07 1.80488 29.3857 0 0 0 0
47 1 C 1.82415e-06 3.23984 29.3765 0.114756 0.00797368 -0.000755126 -0.000215435
48 1 C -8.74356e-07 3.98391 28.1265 0.21064 0.00120319 0.00716859 -0.00407207
49 1 C 1.54855e-06 5.45616 0.651261 0.0774638 0.00253325 -0.00918467 -0.000999434
50 1 C -5.40707e-06 6.18189 1.90651 -0.0422035 0.0060263 0.00483845 -0.000923702
51 1 C 3.14375e-06 7.60976 1.89893 0.0767638 0.000874781 -0.00276288 -0.00239125
52 1 C -1.70638e-06 8.28847 0.619438 0.183043 0.00214896 0.000685788 0.0010711
53 1 C 4.47255e-06 5.43181 3.12059 -0.121121 0.000356285 -0.00249489 -0.00403544
54 1 C -1.38766e-06 6.13639 4.3907 -0.11469 0.00236062 -0.00354138 -0.0106985
55 1 C -7.54801e-07 7.58143 4.3856 -0.171439 -2.7217e-05 0.000198729 -0.00252414
56 1 C 3.05743e-06 8.30038 3.16173 -0.0617253 -0.00241207 -0.0049501 0.00712282
57 1 C 3.31248e-06 5.3902 5.60339 -0.0924043 -0.00121982 -0.00247034 -0.00412885
58 1 C 1.8716e-06 6.10735 6.8847 -0.125409 0.00274373 -0.00125833 0.00351248
59 1 C 2.27449e-06 7.54152 6.92802 -0.170845 -0.0101585 0.00053481 -0.00069065
60 1 C 6.91039e-07 8.27355 5.64531 -0.147121 -0.00361908 -0.00290408 0.00290182
61 1 C 9.99936e-07 5.40184 8.13137 -0.137509 0.00267 0.00075515 -0.000882326
62 1 C 2.97122e-06 6.12886 9.38657 -0.138733 -0.0147847 0.000901741 0.00204725
63 1 C -1.3805e-06 7.57546 9.40934 -0.00959406 0.000939858 -0.000635899 3.69378e-05
64 1 C -3.24447e-07 8.29456 8.14904 -0.091161 -0.000673109 -0.00120684 0.00147672
65 1 C -3.16127e-06 5.3801 10.6067 -0.0452738 -0.00131614 -0.00319667 -0.00235118
66 1 C 6.09664e-06 6.05571 11.8961 0.0312334 0.0106054 -0.00204788 0.00171441
67 1 C -7.92993e-07 7.50343 11.9045 -0.0034008 -0.00215297 0.00422466 0.00510616
68 1 C -1.80734e-07 8.25919 10.6458 -0.00671261 -0.00458367 0.0116582 0.00639206
69 1 C -8.80285e-06 5.33332 13.1368 0.0680659 0.0013383 -0.000676803 -0.00253719
70 1 C 1.52076e-06 6.06689 14.3733 0.0713509 0.00602684 -0.000537887 -0.00096696
71 1 C -1.93679e-06 7.49518 14.38 0.0562923 0.000796921 0.000435541 0.00262457
72 1 C 3.74469e-06 8.23747 13.1318 0.0914755 -0.00014465 0.00161226 0.00226052
73 1 C -2.30248e-06 5.32169 15.6391 0.0310476 -0.00123179 0.00533088 0.00111323
74 1 C 2.28294e-06 6.05908 16.8679 -0.0152229 0.000861275 -0.00281039 0.00363252
75 1 C -1.79207e-06 7.50368 16.8723 -0.0181238 -0.00161797 -0.000242216 0.00468736
76 1 C 4.98988e-06 8.24252 15.6208 0.031898 -0.00555189 -0.000958126 0.00859151
77 1 C -9.23063e-07 5.35219 18.1327 0.00238157 -0.000569538 -0.00638742 -0.00349492
78 1 C 4.6769e-06 6.11808 19.3768 -0.0768942 0.00168689 0.000767709 -0.0015833
79 1 C -3.4682e-06 7.55422 19.3622 -0.0773073 0.00268139 -0.000464666 -0.00862183
80 1 C 2.79288e-06 8.24195 18.1105 -0.0494999 0.00686021 -0.000281685 -0.00699624
81 1 C -8.37111e-07 5.44181 20.6358 -0.0884607 0.00243874 -0.00458284 -0.00525269
82 1 C 1.79786e-06 6.13075 21.8948 -0.00258656 0.00295102 -0.00441543 -0.00634438
83 1 C -4.78532e-06 7.56261 21.8718 0.09235 -5.81245e-05 -0.00234119 -0.00441896
84 1 C 2.38991e-06 8.26945 20.6319 0.0130955 -0.00222941 0.00298913 -0.00146762
85 1 C -5.83484e-06 5.43512 23.1607 0.0717162 -0.00216918 -0.00789064 0.00824179
86 1 C 2.42285e-06 6.14656 24.4139 0.0394274 0.00247211 -0.00624499 -0.000489239
87 1 C -3.09583e-06 7.57907 24.3675 0.0552678 -0.00104524 0.00082781 0.00191174
88 1 C 3.97837e-06 8.32735 23.1162 0.121348 0.00400656 0.00140597 0.0021565
89 1 C -1.31204e-06 5.38956 25.6515 0.119726 -0.00388627 0.00199175 -0.00463358
90 1 C 3.95875e-07 6.12687 26.8818 0.189685 0.00711263 -0.00344803 -0.000374871
91 1 C 3.40781e-06 7.56482 26.8572 0.168186 -0.000699444 0.000555592 -0.00230665
92 1 C 3.93688e-06 8.29692 25.619 0.063679 -0.00314018 0.00175742 -0.00174519
93 1 C 2.80532e-06 5.41284 28.1707 0.0852584 0.00154749 -0.00162187 -0.00379642
94 1 C -3.69528e-06 6.17534 29.3939 0.0986882 -0.0119562 0.00149663 -0.00199792
95 1 C -5.62635e-07 7.60402 29.3863 0.18857 -0.00159614 9.78603e-05 -0.000960025
96 1 C -3.18067e-06 8.32361 28.0879 0.217288 0.000462276 0.00287485 0.0008031
97 1 C -2.26483e-06 9.74129 0.592568 0.0667293 -0.00347701 0.00886121 -0.00194574
98 1 C -7.26435e-07 10.4402 1.88149 0.0251695 -0.00151584 0.00283846 -0.00130625
99 1 C -3.04872e-06 11.8819 1.83473 -0.0187294 -1.94141e-05 0.00218921 0.001419
100 1 C 4.27576e-06 12.6397 0.619479 0.236552 -0.00683088 -0.000982277 -0.00205491
101 1 C 8.16232e-07 9.77438 3.15059 0.0148086 -0.00539344 0.000585184 0.00120671
102 1 C -9.10481e-07 10.4549 4.41924 -0.0674878 -0.00257868 -4.17489e-05 0.00114641
103 1 C -5.61498e-06 11.8752 4.36883 -0.0332561 -0.0139785 -0.00567819 0.00549066
104 1 C 4.44887e-06 12.5556 3.0998 -0.0959631 0.00381065 0.00722611 0.00177042
105 1 C -8.99362e-08 9.7188 5.68111 -0.107731 0.00311775 -0.000621185 0.000963402
106 1 C 2.77082e-06 10.47 6.90667 -0.0508641 0.000986948 -0.00549593 -0.00251976
107 1 C -6.6352e-06 11.9231 6.93137 0.109078 -0.00774872 0.000349184 -0.00254083
108 1 C 8.05744e-06 12.6026 5.642 0.032638 0.00308764 0.00976778 -0.0059197
109 1 C -9.41596e-10 9.74158 8.12627 0.0368221 -0.000179082 -0.00683235 0.000527825
110 1 C -1.26434e-06 10.468 9.38309 0.137998 -0.00160118 -0.00189833 -0.00146954
111 1 C -2.89397e-06 11.9156 9.40338 0.235112 -0.00129168 0.0101241 0.00460314
112 1 C 2.2327e-06 12.6305 8.15778 0.205466 -0.00207179 0.00273962 -0.0042687
113 1 C -3.58723e-07 9.70728 10.6334 0.0520079 -0.00516095 -0.00391475 0.00738802
114 1 C -8.58513e-07 10.4039 11.879 0.215253 0.0058043 0.000915243 -0.00459808
115 1 C 1.61154e-06 11.8791 11.8914 0.266753 0.0105894 -0.00361728 -0.000761607
116 1 C -2.78145e-07 12.6564 10.653 0.233937 0.00135134 -0.00698324 0.0013231
117 1 C -2.69972e-06 9.67683 13.1323 0.170503 0.00749752 -0.00195022 0.00146771
118 1 C 5.53797e-07 10.44 14.3533 0.21986 0.00464284 0.0020847 0.01272
119 1 C 5.66274e-06 11.889 14.374 0.279412 0.00399808 -0.000806339 0.00762372
120 1 C -4.20476e-06 12.6048 13.1267 0.220844 0.0059671 0.00105225 0.00370351
121 1 C -1.72901e-06 9.68781 15.5812 0.109934 -0.00576371 -0.00127197 0.00249004
122 1 C -5.00063e-07 10.3898 16.8501 0.123364 0.00340214 0.00806648 0.00273212
123 1 C 8.53077e-08 11.8235 16.8575 0.186702 0.00707744 -0.0119612 0.00430871
124 1 C -2.25116e-06 12.6022 15.6419 0.247288 0.00251378 0.00347724 -0.00151272
125 1 C -1.22606e-07 9.69145 18.1086 0.00292154 0.00327211 0.000581383 0.00204509
126 1 C 7.48976e-07 10.4445 19.3371 0.0156794 -0.0012614 0.00019307 -0.00247268
127 1 C -3.04016e-06 11.8852 19.36 0.0368812 0.000623499 -0.00548097 -0.00226983
128 1 C 1.85104e-07 12.5623 18.1186 0.0951049 -0.00061274 0.00414204 0.00134166
129 1 C -2.88721e-06 9.71964 20.5861 0.0110831 -0.000337197 -0.00309958 -0.00838343
130 1 C 7.56808e-07 10.4754 21.829 0.0569491 -0.00351523 0.00283044 0.00478142
131 1 C -1.98757e-06 11.9173 21.9042 0.0754486 -0.00068953 0.00134713 -0.0114887
132 1 C 2.87424e-06 12.616 20.6334 0.0656291 0.0024918 0.00424478 -0.00433031
133 1 C -1.83401e-06 9.74173 23.0991 0.0348879 -0.00428659 0.00204648 -0.000722688
134 1 C 8.44072e-07 10.4717 24.3565 0.0746106 0.00101581 0.00151201 -0.00368539
135 1 C -6.65627e-07 11.9268 24.3912 0.00232175 0.00710703 0.0037259 -0.000376827
136 1 C 5.48807e-06 12.6459 23.1526 -0.00719583 0.000505344 -0.00344245 -0.00593439
137 1 C -3.19745e-06 9.7472 25.5992 0.0925492 -0.00789674 0.00374184 -0.00571947
138 1 C 3.33355e-06 10.4875 26.8321 0.137287 0.00593667 0.00472178 0.00078726
139 1 C -2.57891e-06 11.9324 26.8736 0.119103 -0.00230328 -0.00266783 0.002351
140 1 C 1.32138e-06 12.6326 25.6429 0.0444279 -0.00254847 -0.00951272 0.00170744
141 1 C -2.74818e-06 9.76738 28.1122 0.176651 -0.0027639 -0.00314901 -0.00622634
142 1 C 8.0419e-07 10.4771 29.3731 0.102528 0.00187038 0.000843603 0.00552379
143 1 C -2.7451e-06 11.9486 29.4045 0.214002 0.002023 0.0102708 -0.0036051
144 1 C 2.03423e-06 12.6464 28.1466 0.213213 0.00406381 0.00073957 -0.00379088
145 1 C -6.58281e-06 14.1017 0.664828 0.128779 0.00527106 -0.00171768 0.00132702
146 1 C 3.28941e-06 14.808 1.90256 -0.049019 -0.000723935 0.00845796 0.00378181
147 1 C -5.38782e-06 16.2482 1.85451 -0.010514 -0.000948823 0.00321073 -0.00228793
148 1 C 8.72651e-06 16.9916 0.623455 0.0486839 -0.00256838 -0.00133445 0.00183701
149 1 C -2.09244e-06 14.0334 3.11587 -0.0727532 -0.000949175 0.00123901 0.00110784
150 1 C 7.2901e-06 14.7511 4.34982 -0.0814275 -0.00213971 0.00969518 0.0067711
151 1 C -5.00075e-06 16.1869 4.34851 -0.0345827 0.00236 0.00249392 -0.000302058
152 1 C 6.23478e-06 16.9474 3.13906 0.0646067 -0.0019799 -0.000857367 -0.00260863
153 1 C -7.10385e-06 14.0248 5.61437 0.00300747 -0.00610792 -0.00341877 4.54327e-05
154 1 C 9.06012e-06 14.7464 6.87065 -0.0694183 0.00619467 0.00924767 -0.00144105
155 1 C -4.25624e-06 16.2065 6.88595 -0.0988129 0.0020323 0.00228827 0.00995471
156 1 C 2.63506e-06 16.9027 5.62679 -0.0459845 0.00365139 -0.00102579 -0.00177843
157 1 C -3.62514e-06 14.0916 8.13566 0.0239528 0.00601484 -0.000140692 0.00120575
158 1 C 5.0186e-06 14.8109 9.39094 0.1096 0.000978407 0.00111566 0.00483295
159 1 C -3.79896e-06 16.24 9.44273 0.103771 0.00129828 -0.00916404 0.00700851
160 1 C 3.09098e-06 16.8916 8.159 0.030493 0.00745491 -0.00433286 -0.00208642
161 1 C -1.81024e-07 14.0831 10.6584 0.155711 -0.00367936 -0.00571976 -0.00327641
162 1 C -1.47612e-06 14.7719 11.9216 0.0713898 0.000676212 -0.00412466 0.00240626
163 1 C 2.75239e-06 16.2287 11.9099 0.0996676 0.00216525 -0.00729171 0.00764586
164 1 C -6.24866e-07 16.9881 10.6864 0.156958 0.000690198 -0.00363925 -0.00442537
165 1 C -4.53435e-07 14.0615 13.1682 0.125634 -0.0053778 0.00318533 -0.0056412
166 1 C -3.37303e-06 14.7853 14.425 0.174795 0.00228805 -0.00303866 0.00152276
167 1 C 2.17061e-06 16.2379 14.4035 0.0824614 0.00776784 -8.91476e-05 -0.00102779
168 1 C -2.03559e-07 16.9578 13.1572 0.103895 -0.00632229 -0.00294025 -0.00331245
169 1 C 1.53973e-06 14.0675 15.6559 0.148797 0.00160071 -0.00411797 0.00550293
170 1 C -4.41447e-06 14.7511 16.9237 0.0459291 0.00234796 0.0061962 0.00503924
171 1 C 2.8285e-06 16.2114 16.8975 0.0579873 -0.00599038 0.00904211 -0.00307833
172 1 C -1.54782e-06 16.9433 15.6559 0.0452027 -0.0013801 0.00724437 -0.00400652
173 1 C 8.28142e-07 14.0256 18.1481 0.000909008 -0.00608344 0.00259645 0.00837564
174 1 C 1.44029e-06 14.7724 19.3984 -0.0165905 -0.000286629 0.000801687 0.00686427
175 1 C -2.082e-06 16.2331 19.3988 0.0355808 -0.00102447 0.00486866 0.00121605
176 1 C 5.6744e-07 16.9328 18.1505 0.0327457 -0.00677859 0.00928123 0.00170954
177 1 C -9.04807e-07 14.0342 20.6121 -0.0271569 0.00188514 0.00305364 -0.00194748
178 1 C 1.41921e-06 14.7913 21.8784 -0.0470627 0.00215922 -0.00550148 -0.00681267
179 1 C -2.0326e-06 16.2518 21.8952 0.0732238 -5.48824e-05 -0.00985195 -0.00433012
180 1 C 1.62615e-06 16.9706 20.643 0.110991 -0.00294222 0.000208648 0.0076823
181 1 C -4.07247e-06 14.0896 23.1223 0.0613634 -0.0111576 0.00113403 0.00316838
182 1 C 1.77667e-06 14.8114 24.3982 0.198128 -0.00149194 -0.00214565 0.00396793
183 1 C -3.42183e-06 16.2291 24.4019 0.207196 0.00649502 0.00528326 -0.00358536
184 1 C 4.79888e-06 16.9865 23.1379 0.139993 -0.000611355 -0.00665038 0.00173511
185 1 C -2.19777e-06 14.0829 25.6387 0.147933 0.00239205 0.000425677 -0.00186883
186 1 C 6.50879e-06 14.8021 26.8943 0.248216 -0.000699979 0.000592645 -0.00616418
187 1 C -6.76922e-06 16.2407 26.9009 0.18193 -0.00128713 -0.00274054 -0.00105082
188 1 C 6.2136e-06 16.9532 25.6463 0.210459 0.00708998 0.00243739 0.00651721
189 1 C -4.29485e-06 14.0801 28.1564 0.277445 -0.00258201 0.000981183 -0.00350489
190 1 C 7.85066e-06 14.7826 29.4281 0.295568 0.00277639 -0.000246102 -0.00584346
191 1 C -3.86708e-06 16.2307 29.3908 0.176075 -0.00223048 -0.00137004 -0.0107792
192 1 C 4.9562e-06 16.9583 28.1614 0.0872025 0.00438862 0.000274657 0.00217285
193 1 C -8.8447e-06 18.4344 0.653271 0.0483757 -0.00501184 0.00203433 0.00217185
194 1 C 4.74923e-06 19.1407 1.91241 0.0566857 -0.00363766 0.00361015 0.000990251
195 1 C -4.10121e-06 20.584 1.89936 0.0231597 0.00284463 -0.00614408 -0.00934111
196 1 C 5.4373e-06 21.3201 0.631236 -0.00915795 -0.00598567 0.00113749 0.00942194
197 1 C -2.30364e-06 18.3957 3.15016 0.0762218 -0.00432452 0.00738853 0.00378693
198 1 C 3.67969e-06 19.1243 4.40498 0.0409733 -0.000601654 -0.00213765 -0.00438377
199 1 C -3.00065e-06 20.5725 4.38956 -0.0436342 -0.00313489 0.000871473 0.000201397
200 1 C 2.25245e-06 21.3045 3.12907 0.00463444 -0.0021603 0.00226669 -0.00218218
201 1 C -4.61452e-06 18.3476 5.60158 -0.0328335 -0.000436269 -0.00337957 0.00208004
202 1 C 1.75996e-06 19.0748 6.83649 -0.0385254 0.00683855 0.015272 0.00178456
203 1 C -6.45008e-07 20.5197 6.86861 -0.00810943 0.00310771 -7.72646e-05 -0.00712971
204 1 C 3.07986e-06 21.282 5.62738 -0.0666047 0.00281747 -0.00143581 0.000194501
205 1 C -1.27459e-06 18.3295 8.09171 -0.0199186 -0.00208853 -0.00487366 -0.00432765
206 1 C -2.58407e-06 19.0658 9.32391 0.0320611 -0.00217349 -0.00333649 -0.00047441
207 1 C -1.16149e-06 20.5361 9.34243 0.0341926 -0.00423575 0.00630218 -0.00614394
208 1 C -9.93996e-07 21.2595 8.09909 0.018894 -0.00446122 -0.000991891 0.000425935
209 1 C 2.54742e-06 18.436 10.6213 0.0882757 -0.000302722 0.000768095 0.0055593
210 1 C -1.46373e-06 19.1678 11.8781 0.0795552 0.00420058 0.0050043 0.000400335
211 1 C 1.16686e-06 20.5896 11.8753 0.00244469 -0.00362803 -0.00373814 0.000524871
212 1 C 3.35183e-08 21.2579 10.5768 0.0825372 0.00412893 0.0063097 0.00130361
213 1 C 2.52594e-06 18.3938 13.1153 0.0934008 -0.00292851 -0.00511728 -0.00177293
214 1 C -2.79812e-06 19.0589 14.3908 0.0622924 0.000153127 0.000128442 -0.000305507
215 1 C -9.86488e-07 20.5184 14.4035 0.0727006 0.000646691 0.00833827 -0.000857711
216 1 C 5.92095e-07 21.246 13.1737 0.0231952 0.00291467 0.0117295 0.00299555
217 1 C -9.21147e-07 18.3988 15.6453 -0.0608561 -0.00480383 -0.00173614 0.00148716
218 1 C 1.24725e-06 19.1158 16.8881 0.131444 0.0035943 0.004758 -0.00581994
219 1 C -1.83665e-06 20.5656 16.8871 0.0904269 -0.00280543 -0.00648106 0.000433127
220 1 C 1.58424e-06 21.27 15.6456 0.0545551 -0.000161146 0.00347696 -0.00281653
221 1 C 9.85074e-07 18.3894 18.1095 0.0393811 -0.00787205 -0.000104027 -0.00609901
222 1 C 3.45906e-08 19.1225 19.3826 0.146881 -0.00405232 -0.00856963 0.00264458
223 1 C -1.89017e-06 20.559 19.3876 0.131142 0.00300746 0.00283613 -0.0109068
224 1 C 3.52647e-06 21.2937 18.1315 0.0475941 0.00259997 0.00154776 -0.00261946
225 1 C 2.21882e-08 18.4054 20.621 0.171248 0.00114163 -0.008443 -0.00731945
226 1 C 1.60004e-06 19.1146 21.891 0.246466 0.0049932 -0.00316821 -0.00657769
227 1 C -3.48585e-06 20.5675 21.8881 0.196863 0.000263434 0.000481093 0.00107622
228 1 C 2.69358e-06 21.2671 20.63 0.103326 0.00143999 0.00336671 -0.00343519
229 1 C -1.39626e-06 18.4152 23.1394 0.250679 -0.00908341 -0.00848756 0.00200478
230 1 C 4.65352e-06 19.1523 24.3776 0.131821 -0.0041468 0.00318044 -0.00688101
231 1 C -4.34061e-06 20.5683 24.4187 0.125585 -0.00278025 -0.00344002 0.00253243
232 1 C 5.82782e-06 21.2716 23.137 0.178214 -0.00169267 0.0057516 0.000462282
233 1 C -3.94326e-06 18.4029 25.6254 0.15247 -0.00389957 0.00204666 0.0107439
234 1 C 7.02334e-06 19.0782 26.8868 0.0307566 0.00406329 -0.00245474 -0.00471019
235 1 C -7.97268e-06 20.5236 26.9026 -0.0273234 -0.00584228 -0.00545879 -0.0098454
236 1 C 7.88715e-06 21.302 25.6812 0.0447099 -0.00435636 -0.0042606 0.000626284
237 1 C -9.92595e-06 18.3911 28.1406 -0.0368829 0.00458023 -0.00128964 0.00125226
238 1 C 7.79905e-06 19.1508 29.4025 0.00275832 0.00171573 -0.00169455 0.00723524
239 1 C -7.7706e-06 20.5726 29.4013 -0.0407335 0.00511154 -0.000761637 0.0135845
240 1 C 3.22717e-06 21.2807 28.1331 -0.0571416 0.00313621 -0.0114631 0.00170811
241 1 C -4.3454e-06 22.7385 0.63464 -0.11367 0.00164397 0.000595026 0.00682519
242 1 C 1.61886e-06 23.4949 1.87522 -0.208095 -0.000438892 0.00430835 0.000454668
243 1 C 2.93332e-06 24.9253 1.8681 -0.185981 -0.00258251 0.00818371 -0.00438623
244 1 C 1.42292e-07 25.6331 0.606979 -0.221161 0.00173742 0.00801342 0.00761096
245 1 C -6.21953e-06 22.7352 3.11096 -0.153063 -0.00240797 0.00498384 -0.0063386
246 1 C 2.97055e-06 23.4626 4.36866 -0.155773 -0.00179104 -0.00161213 -0.00971263
247 1 C 2.13783e-07 24.8931 4.39478 -0.126661 -0.00489574 0.00245178 0.010565
248 1 C 6.61716e-07 25.6193 3.13648 -0.134825 -0.00357819 0.00198428 0.00733628
249 1 C -2.72054e-06 22.7195 5.61235 -0.11412 0.00312477 -0.000411895 0.00844246
250 1 C -1.66966e-06 23.4435 6.86043 -0.113065 0.00164592 -0.00834277 0.00569225
251 1 C 1.68599e-06 24.8826 6.89902 -0.00130612 0.00264308 0.00426142 0.000473601
252 1 C 3.34997e-07 25.5844 5.66537 -0.0498658 0.00467235 -0.00438803 -0.00352064
253 1 C -1.29169e-06 22.7075 8.14122 -0.049378 0.00381372 0.00560179 0.000425437
254 1 C -3.61729e-06 23.417 9.349 -0.00585856 -0.000245568 -0.00240099 0.00687679
255 1 C -2.83485e-07 24.8841 9.40309 0.0199237 -0.00508972 6.38097e-05 0.0107669
256 1 C -4.27776e-07 25.6 8.16405 0.0563209 -0.00120391 0.00122568 -0.00442258
257 1 C 2.81213e-06 22.6966 10.6103 0.0805614 -0.00762171 -0.00264391 -0.00870312
258 1 C -2.25867e-07 23.3834 11.9097 -0.0282023 -0.013239 -5.17605e-05 0.00381474
259 1 C -3.07726e-06 24.8436 11.9004 -0.0550848 0.0032077 0.0085639 0.00284382
260 1 C 3.30145e-06 25.5887 10.6689 -0.00252769 0.00364368 -0.00623097 0.00361655
261 1 C -7.72338e-07 22.6887 13.1401 -0.0952742 -0.0013672 0.0031945 -0.00479712
262 1 C 3.60871e-06 23.4325 14.4133 0.0340799 0.000791156 0.00029847 0.00322088
263 1 C -1.67024e-06 24.8512 14.429 -0.0213266 0.00120629 0.00365737 -0.00022596
264 1 C 4.15821e-06 25.5635 13.1551 -0.0801369 -0.00420191 -0.00721937 -0.000999663
265 1 C -4.00788e-06 22.7172 15.6506 0.0405285 -0.00024439 -0.00361437 -0.00919014
266 1 C 3.69257e-06 23.4866 16.8775 0.101455 -0.000939433 0.00295922 -0.00239921
267 1 C -5.06242e-06 24.9286 16.9036 0.105502 0.00559052 -0.00139024 -0.00211865
268 1 C 4.102e-06 25.6547 15.6452 0.0124834 0.00188984 0.00285977 0.0078829
269 1 C -7.09571e-06 22.7233 18.1037 0.0496232 0.00622725 -0.00127023 -0.00326346
270 1 C 6.99084e-06 23.4482 19.3624 0.148132 0.00266022 0.00311022 -0.00303849
271 1 C -3.92743e-06 24.8678 19.3814 0.269109 0.00745269 -0.00256998 0.00234018
272 1 C 7.73836e-06 25.6354 18.1594 0.168459 0.00423516 -0.000313741 -0.00318269
273 1 C -7.55173e-06 22.7175 20.6259 0.145486 0.000125557 0.00323162 0.00303712
274 1 C 3.07106e-06 23.4462 21.8565 0.146227 -0.00709906 0.00174884 -0.00314946
275 1 C -7.55903e-06 24.9083 21.9068 0.208409 0.000950054 -0.00258245 0.00884258
276 1 C 6.19391e-06 25.5959 20.6546 0.292685 0.000562556 -0.00444735 0.0105664
277 1 C -4.53523e-06 22.7131 23.1089 0.210812 0.000342467 0.00208464 -0.00716425
278 1 C 3.37065e-06 23.4208 24.3507 0.160172 0.000657438 -0.00627426 -0.00253356
279 1 C -5.40831e-06 24.8815 24.3933 0.165715 0.00550128 -0.00324444 -0.000792924
280 1 C 6.03862e-06 25.6321 23.1574 0.208571 -0.000269297 -0.000569267 0.00451112
281 1 C -4.77813e-06 22.7191 25.6416 0.0275887 0.000541963 0.00638586 -0.00677875
282 1 C 4.49692e-06 23.4702 26.8883 0.0599703 -0.0028282 -0.0038302 0.00291521
283 1 C -4.93181e-06 24.8923 26.8663 -0.00672072 0.00389085 0.00212749 0.00402552
284 1 C 5.35727e-06 25.5958 25.6223 0.113228 -0.00211711 -0.00322144 -0.00216438
285 1 C -1.64748e-06 22.7075 28.1272 0.0768239 -0.00302516 0.00144381 -0.00638617
286 1 C 2.84288e-07 23.4268 29.3738 -0.034884 -0.000645293 -0.00316888 0.0104819
287 1 C -1.88864e-06 24.8685 29.3962 -0.178351 0.003695 -0.00119945 -0.00861561
288 1 C 2.35714e-06 25.6095 28.1546 -0.140506 -0.00232076 0.00160706 0.00477942
289 1 C 3.11454e-06 27.0898 0.631145 -0.130647 -0.00451922 0.00250711 0.0031871
290 1 C -1.19174e-06 27.7868 1.87414 -0.0823026 -0.00353203 0.0051345 -0.00573227
291 1 C 3.38475e-07 29.2389 1.91282 -0.0426358 0.00558866 0.000680995 -0.00552099
292 1 C 1.01507e-06 29.9407 0.672168 -0.0685524 -0.00525295 -0.00600053 0.00282822
293 1 C 7.49483e-07 27.0372 3.13081 -0.0539708 0.00554348 -0.00605543 -0.00413098
294 1 C 2.38267e-06 27.7262 4.40419 0.0989323 0.00321558 0.00539295 -0.000998353
295 1 C 9.79634e-07 29.1661 4.39914 0.146054 0.00375199 -0.0101491 -0.00623225
296 1 C 9.35442e-07 29.9442 3.17123 -0.00293108 0.00206363 0.00574945 0.00149161
297 1 C -2.68835e-06 27.0333 5.63675 0.106116 -0.000887712 -0.00280305 0.00429684
298 1 C 2.94372e-06 27.7455 6.91541 0.168675 0.00862899 0.00472813 -0.00119915
299 1 C -4.97421e-06 29.1789 6.87962 0.199053 0.00140492 -0.00171624 0.00088467
300 1 C -1.76136e-06 29.903 5.63368 0.232223 -0.00191944 -0.00145249 -0.00389992
301 1 C 3.37962e-07 27.0548 8.16339 0.120018 -5.46405e-05 -0.00395142 0.00229602
302 1 C 2.66803e-06 27.7837 9.43327 0.115376 0.00281268 -0.00168714 0.00743131
303 1 C -6.41074e-06 29.2076 9.37594 0.0145184 -0.000787193 -0.000993909 0.00263597
304 1 C 5.7396e-06 29.9326 8.13887 0.122878 0.00215912 -0.00197196 -0.00294735
305 1 C -2.67622e-06 27.028 10.6578 0.0988861 -0.00833171 -0.00250829 -0.0033452
306 1 C 5.1409e-06 27.7287 11.8957 0.0614595 0.00448145 0.00256329 0.00107814
307 1 C -5.03616e-06 29.2013 11.8488 -0.0454885 -0.000587474 0.000537499 -0.00547715
308 1 C 6.13933e-06 29.918 10.6382 -0.0971974 0.0037793 -0.00156547 -0.00115888
309 1 C -4.88003e-06 26.9993 13.1344 0.0116597 0.00471812 0.00443533 0.00090261
310 1 C 3.44863e-06 27.7494 14.3618 0.0601336 0.000195817 0.00434627 -0.00424514
311 1 C -9.50861e-06 29.2011 14.3426 0.065972 0.00427435 -0.0070319 0.0049861
312 1 C 5.81366e-06 29.9163 13.114 -0.0299447 -0.00759358 -0.00303704 0.00459861
313 1 C -7.32072e-06 27.0721 15.6314 0.0820171 0.00612289 0.00375467 -0.00317516
314 1 C 7.32461e-06 27.7732 16.9408 0.0497911 0.000217473 -0.00183066 -0.00217592
315 1 C -8.5439e-06 29.1788 16.9067 0.0317022 0.00318104 0.00634295 -0.00231971
316 1 C 7.42967e-06 29.8869 15.6233 -0.0624124 -0.00647597 0.00256636 0.00205963
317 1 C -8.21084e-06 27.0737 18.1968 0.157511 0.00332882 -0.00285807 0.00429292
318 1 C 8.5332e-06 27.7868 19.4643 0.219478 0.000635017 -0.00110797 0.00472606
319 1 C -4.76692e-06 29.2352 19.4209 0.248453 -0.000984652 0.00778486 0.00341802
320 1 C 8.84732e-06 29.9266 18.1572 0.097652 -0.000589166 0.00444009 0.0023067
321 1 C -4.71651e-06 27.0464 20.6914 0.292159 -0.000429732 -0.00547784 -0.00620111
322 1 C 7.3449e-06 27.7833 21.9134 0.333493 0.00692165 0.00138871 -0.00408797
323 1 C -4.37961e-06 29.2065 21.9102 0.236095 -0.00347705 0.00226383 0.00544274
324 1 C 6.57774e-06 29.9503 20.6697 0.197152 -0.00149304 0.00441337 0.00476003
325 1 C -4.32666e-06 27.0701 23.1875 0.209984 0.00423514 -0.000228837 0.0041273
326 1 C 4.9659e-06 27.8137 24.4224 0.120713 -0.00448017 -0.000977667 -0.00308097
327 1 C -7.84115e-06 29.2536 24.4155 0.121663 0.00119747 -0.00553171 0.00401444
328 1 C 4.90556e-06 29.9546 23.1645 0.144185 0.0104259 0.00503487 -0.00239798
329 1 C -5.85609e-06 27.0802 25.6598 0.133132 -0.00451519 -0.0051871 0.000537321
330 1 C 4.39993e-06 27.769 26.8919 0.0159377 -0.0031571 -0.00130388 -0.00733404
331 1 C -8.26705e-06 29.2294 26.8939 0.0387268 0.00123372 -0.000139869 0.00161379
332 1 C 9.09495e-06 29.9866 25.6669 -0.0198552 -0.000288849 0.00055079 -0.00587382
333 1 C -2.8079e-06 27.0186 28.1176 -0.147447 0.0022157 0.00227403 0.00570017
334 1 C 2.78221e-06 27.7635 29.3842 -0.112685 -0.00237798 -0.00424852 0.00447715
335 1 C -2.35648e-06 29.2157 29.4185 -0.0721028 0.0010548 0.00336899 -0.00383014
336 1 C 9.7398e-06 29.907 28.1493 -0.102464 -0.00641898 -0.00452411 -0.014582
337 1 C -2.24335e-06 31.3813 0.600632 0.0429508 0.00483528 0.00284165 0.00143997
338 1 C 2.01182e-06 32.1099 1.86752 -0.0156362 -0.00275072 0.00561713 -0.00100694
339 1 C -5.46235e-06 33.5406 1.89979 0.127088 -0.00218757 0.00640123 -0.0018135
340 1 C 6.89155e-06 34.2593 0.628862 0.107245 0.000346969 0.00842678 -0.00542715
341 1 C -4.71574e-06 31.3939 3.11301 0.0270424 -0.00351922 0.00762793 -0.003841
342 1 C 4.14303e-06 32.0888 4.39152 0.0750451 0.00765512 0.00244278 0.00500452
343 1 C -2.90685e-06 33.5227 4.40323 0.0614391 0.00128715 0.000619975 -0.00285346
344 1 C 6.48486e-06 34.2178 3.17084 0.0767392 0.00113977 0.00290201 0.00846534
345 1 C -7.14411e-06 31.3483 5.63265 0.190412 0.0102282 -0.00156983 0.0100683
346 1 C 3.63802e-06 32.0742 6.88298 0.209676 -0.00389868 0.00369093 0.00327824
347 1 C -1.76259e-06 33.533 6.85963 0.126418 0.0051266 0.00227626 0.0065982
348 1 C 4.04655e-06 34.296 5.64813 0.0682935 0.00467846 0.00356869 -0.00782407
349 1 C -4.88582e-07 31.3672 8.13165 0.0637599 -0.00351592 -0.00206194 0.00330351
350 1 C 3.57671e-06 32.1093 9.39714 -0.0436251 0.00629955 -0.00389536 0.000142571
351 1 C -3.36553e-06 33.5472 9.35414 -0.0159542 0.00720631 0.00567096 -0.00531184
352 1 C 3.03754e-06 34.2742 8.09561 0.0829926 -0.000873003 0.00238098 0.000196135
353 1 C -1.39958e-06 31.3777 10.648 -0.132382 0.00041266 -0.00257803 -0.00828204
354 1 C 6.88934e-07 32.0892 11.8884 -0.0888527 0.0100462 7.17882e-05 0.00145896
355 1 C -2.05811e-06 33.5398 11.8822 -0.0285494 -0.00416703 0.00172687 0.00385777
356 1 C 2.63563e-06 34.2484 10.6094 -0.0149005 0.00844241 0.0022425 -0.00635318
357 1 C -3.00131e-06 31.3626 13.1393 -0.115324 -0.00128282 -0.0067985 0.00258586
358 1 C 2.31992e-06 32.094 14.3891 -0.0967049 0.00393846 0.00159426 0.0010664
359 1 C -5.82858e-06 33.5225 14.3923 -0.0407198 -0.000628418 -0.00399831 0.00153403
360 1 C 3.06226e-06 34.2384 13.136 -0.0757921 0.0105 0.0017928 0.00370979
361 1 C -6.3353e-06 31.2886 15.6177 -0.163476 -1.61655e-05 -0.00606745 0.000757531
362 1 C 8.44697e-06 32.0709 16.8419 -0.136444 -0.00331882 -0.00298733 -0.00792351
363 1 C -6.07303e-06 33.5186 16.8884 -0.0945718 0.00381713 -0.00291297 0.00278743
364 1 C 3.03464e-06 34.2612 15.6348 -0.0920333 0.000425046 0.00246153 0.00085902
365 1 C -6.07472e-06 31.3538 18.1297 -0.0157397 0.00101628 0.00291657 0.0037142
366 1 C 7.41091e-06 32.1213 19.3773 0.0549412 0.000474014 -0.000817166 -0.000590951
367 1 C -3.70157e-06 33.5501 19.3593 -0.0393265 0.00948475 -0.00331366 -0.00523052
368 1 C 1.86828e-06 34.2767 18.124 0.00871405 -0.00085058 0.00535041 0.00188948
369 1 C -9.25085e-06 31.3998 20.6121 0.186006 0.00039487 0.00103346 -0.00166808
370 1 C 6.28794e-06 32.0911 21.8883 0.228092 0.00626513 0.000438684 0.00978649