 Hexagonal lattice structure of dimension 10 x 10 x 2 with a = 1.4200 and c = 3.3500
480 atoms
7 atom types

0.00000000E+00 4.33170000E+01 xlo xhi
0.00000000E+00 3.00108979E+01 ylo yhi
-1.15813500E+01 4.15813500E+01 zlo zhi

Atoms

    1   2  -1.3213E-06  1.08292000E+00  6.25227000E-01  0.00000000E+00
    2   1  -1.8567E-07  1.83219000E+00  1.85621000E+00  -4.80479000E-02
    3   1  -5.8585E-08  3.28170000E+00  1.88292000E+00  -2.19342000E-02
    4   1  -1.7132E-06  3.99764000E+00  6.22907000E-01  3.13182000E-02
    5   1  9.0911E-07  1.06882000E+00  3.10714000E+00  -7.74275000E-02
    6   1  -3.0544E-06  1.75653000E+00  4.35391000E+00  -1.41463000E-01
    7   1  5.1270E-07  3.22647000E+00  4.39493000E+00  -7.66180000E-02
    8   1  -4.7772E-06  3.97501000E+00  3.16753000E+00  -2.08186000E-02
    9   1  6.1466E-07  1.04155000E+00  5.61155000E+00  -1.33068000E-01
   10   1  -5.4870E-07  1.77897000E+00  6.86049000E+00  -9.64793000E-02
   11   1  1.6745E-06  3.21337000E+00  6.89308000E+00  -1.82945000E-01
   12   1  -3.4754E-06  3.95176000E+00  5.65688000E+00  -1.16893000E-01
   13   1  -3.9923E-07  1.04644000E+00  8.11705000E+00  -6.91489000E-02
   14   1  3.9104E-06  1.75847000E+00  9.36204000E+00  -1.52865000E-02
   15   1  -2.8718E-06  3.22470000E+00  9.38036000E+00  -4.57399000E-02
   16   1  -8.9521E-08  3.95197000E+00  8.12482000E+00  -1.03731000E-01
   17   1  -4.0485E-06  1.02658000E+00  1.05937000E+01  -4.95875000E-02
   18   1  2.7639E-06  1.75864000E+00  1.18255000E+01  -1.99352000E-01
   19   1  -1.5251E-06  3.17640000E+00  1.18583000E+01  -1.06492000E-01
   20   1  3.3746E-06  3.93874000E+00  1.06024000E+01  -9.23655000E-02
   21   1  -6.3629E-06  1.02237000E+00  1.31095000E+01  -1.64707000E-01
   22   1  1.4781E-06  1.72622000E+00  1.43523000E+01  -9.69013000E-02
   23   1  6.3244E-07  3.16873000E+00  1.43734000E+01  -8.30647000E-02
   24   1  2.2259E-06  3.89428000E+00  1.31070000E+01  -2.71011000E-02
   25   1  -5.2696E-06  1.05195000E+00  1.56615000E+01  -1.01317000E-01
   26   1  3.1305E-06  1.76759000E+00  1.69006000E+01  -1.22311000E-01
   27   1  -8.3482E-06  3.21748000E+00  1.68960000E+01  -1.75436000E-02
   28   1  5.2232E-06  3.88141000E+00  1.56296000E+01  -3.71138000E-02
   29   1  -6.1392E-06  1.06526000E+00  1.81612000E+01  -7.04092000E-02
   30   1  7.3118E-06  1.78396000E+00  1.94143000E+01  -4.30353000E-02
   31   1  -6.5638E-06  3.23064000E+00  1.94231000E+01  -1.05858000E-01
   32   1  6.8402E-06  3.92287000E+00  1.81689000E+01  -9.32200000E-02
   33   1  -6.3877E-06  1.04025000E+00  2.06663000E+01  1.02687000E-01
   34   1  6.3831E-06  1.79068000E+00  2.18748000E+01  1.91301000E-01
   35   1  -5.5548E-06  3.22528000E+00  2.19030000E+01  1.28508000E-01
   36   1  5.7318E-06  3.96375000E+00  2.06521000E+01  -2.31511000E-02
   37   1  -7.3745E-06  1.06494000E+00  2.31648000E+01  2.94584000E-01
   38   1  5.3295E-06  1.78060000E+00  2.44189000E+01  2.52102000E-01
   39   1  -1.6215E-06  3.22685000E+00  2.43508000E+01  1.29678000E-01
   40   1  1.9836E-06  3.97969000E+00  2.31211000E+01  3.82736000E-02
   41   1  -7.3882E-06  1.06380000E+00  2.56589000E+01  1.67158000E-01
   42   1  3.4877E-06  1.83151000E+00  2.69074000E+01  2.52299000E-01
   43   1  9.0856E-07  3.27620000E+00  2.68628000E+01  2.45725000E-01
   44   1  2.5694E-06  3.93606000E+00  2.55906000E+01  2.37221000E-01
   45   1  -5.8619E-06  1.08689000E+00  2.81324000E+01  1.56393000E-01
   46   2  7.0229E-07  1.80488000E+00  2.93857000E+01  0.00000000E+00
   47   1  1.8241E-06  3.23984000E+00  2.93765000E+01  1.14756000E-01
   48   1  -8.7436E-07  3.98391000E+00  2.81265000E+01  2.10640000E-01
   49   1  1.5485E-06  5.45616000E+00  6.51261000E-01  7.74638000E-02
   50   1  -5.4071E-06  6.18189000E+00  1.90651000E+00  -4.22035000E-02
   51   1  3.1438E-06  7.60976000E+00  1.89893000E+00  7.67638000E-02
   52   1  -1.7064E-06  8.28847000E+00  6.19438000E-01  1.83043000E-01
   53   1  4.4726E-06  5.43181000E+00  3.12059000E+00  -1.21121000E-01
   54   1  -1.3877E-06  6.13639000E+00  4.39070000E+00  -1.14690000E-01
   55   1  -7.5480E-07  7.58143000E+00  4.38560000E+00  -1.71439000E-01
   56   1  3.0574E-06  8.30038000E+00  3.16173000E+00  -6.17253000E-02
   57   1  3.3125E-06  5.39020000E+00  5.60339000E+00  -9.24043000E-02
   58   1  1.8716E-06  6.10735000E+00  6.88470000E+00  -1.25409000E-01
   59   1  2.2745E-06  7.54152000E+00  6.92802000E+00  -1.70845000E-01
   60   1  6.9104E-07  8.27355000E+00  5.64531000E+00  -1.47121000E-01
   61   1  9.9994E-07  5.40184000E+00  8.13137000E+00  -1.37509000E-01
   62   1  2.9712E-06  6.12886000E+00  9.38657000E+00  -1.38733000E-01
   63   1  -1.3805E-06  7.57546000E+00  9.40934000E+00  -9.59406000E-03
   64   1  -3.2445E-07  8.29456000E+00  8.14904000E+00  -9.11610000E-02
   65   1  -3.1613E-06  5.38010000E+00  1.06067000E+01  -4.52738000E-02
   66   1  6.0966E-06  6.05571000E+00  1.18961000E+01  3.12334000E-02
   67   1  -7.9299E-07  7.50343000E+00  1.19045000E+01  -3.40080000E-03
   68   1  -1.8073E-07  8.25919000E+00  1.06458000E+01  -6.71261000E-03
   69   1  -8.8028E-06  5.33332000E+00  1.31368000E+01  6.80659000E-02
   70   1  1.5208E-06  6.06689000E+00  1.43733000E+01  7.13509000E-02
   71   1  -1.9368E-06  7.49518000E+00  1.43800000E+01  5.62923000E-02
   72   1  3.7447E-06  8.23747000E+00  1.31318000E+01  9.14755000E-02
   73   1  -2.3025E-06  5.32169000E+00  1.56391000E+01  3.10476000E-02
   74   1  2.2829E-06  6.05908000E+00  1.68679000E+01  -1.52229000E-02
   75   1  -1.7921E-06  7.50368000E+00  1.68723000E+01  -1.81238000E-02
   76   1  4.9899E-06  8.24252000E+00  1.56208000E+01  3.18980000E-02
   77   1  -9.2306E-07  5.35219000E+00  1.81327000E+01  2.38157000E-03
   78   1  4.6769E-06  6.11808000E+00  1.93768000E+01  -7.68942000E-02
   79   1  -3.4682E-06  7.55422000E+00  1.93622000E+01  -7.73073000E-02
   80   1  2.7929E-06  8.24195000E+00  1.81105000E+01  -4.94999000E-02
   81   1  -8.3711E-07  5.44181000E+00  2.06358000E+01  -8.84607000E-02
   82   1  1.7979E-06  6.13075000E+00  2.18948000E+01  -2.58656000E-03
   83   1  -4.7853E-06  7.56261000E+00  2.18718000E+01  9.23500000E-02
   84   1  2.3899E-06  8.26945000E+00  2.06319000E+01  1.30955000E-02
   85   1  -5.8348E-06  5.43512000E+00  2.31607000E+01  7.17162000E-02
   86   1  2.4229E-06  6.14656000E+00  2.44139000E+01  3.94274000E-02
   87   1  -3.0958E-06  7.57907000E+00  2.43675000E+01  5.52678000E-02
   88   1  3.9784E-06  8.32735000E+00  2.31162000E+01  1.21348000E-01
   89   1  -1.3120E-06  5.38956000E+00  2.56515000E+01  1.19726000E-01
   90   1  3.9587E-07  6.12687000E+00  2.68818000E+01  1.89685000E-01
   91   1  3.4078E-06  7.56482000E+00  2.68572000E+01  1.68186000E-01
   92   1  3.9369E-06  8.29692000E+00  2.56190000E+01  6.36790000E-02
   93   1  2.8053E-06  5.41284000E+00  2.81707000E+01  8.52584000E-02
   94   1  -3.6953E-06  6.17534000E+00  2.93939000E+01  9.86882000E-02
   95   1  -5.6264E-07  7.60402000E+00  2.93863000E+01  1.88570000E-01
   96   1  -3.1807E-06  8.32361000E+00  2.80879000E+01  2.17288000E-01
   97   1  -2.2648E-06  9.74129000E+00  5.92568000E-01  6.67293000E-02
   98   1  -7.2643E-07  1.04402000E+01  1.88149000E+00  2.51695000E-02
   99   1  -3.0487E-06  1.18819000E+01  1.83473000E+00  -1.87294000E-02
  100   1  4.2758E-06  1.26397000E+01  6.19479000E-01  2.36552000E-01
  101   1  8.1623E-07  9.77438000E+00  3.15059000E+00  1.48086000E-02
  102   1  -9.1048E-07  1.04549000E+01  4.41924000E+00  -6.74878000E-02
  103   1  -5.6150E-06  1.18752000E+01  4.36883000E+00  -3.32561000E-02
  104   1  4.4489E-06  1.25556000E+01  3.09980000E+00  -9.59631000E-02
  105   1  -8.9936E-08  9.71880000E+00  5.68111000E+00  -1.07731000E-01
  106   1  2.7708E-06  1.04700000E+01  6.90667000E+00  -5.08641000E-02
  107   1  -6.6352E-06  1.19231000E+01  6.93137000E+00  1.09078000E-01
  108   1  8.0574E-06  1.26026000E+01  5.64200000E+00  3.26380000E-02
  109   1  -9.4160E-10  9.74158000E+00  8.12627000E+00  3.68221000E-02
  110   1  -1.2643E-06  1.04680000E+01  9.38309000E+00  1.37998000E-01
  111   1  -2.8940E-06  1.19156000E+01  9.40338000E+00  2.35112000E-01
  112   1  2.2327E-06  1.26305000E+01  8.15778000E+00  2.05466000E-01
  113   1  -3.5872E-07  9.70728000E+00  1.06334000E+01  5.20079000E-02
  114   1  -8.5851E-07  1.04039000E+01  1.18790000E+01  2.15253000E-01
  115   1  1.6115E-06  1.18791000E+01  1.18914000E+01  2.66753000E-01
  116   1  -2.7815E-07  1.26564000E+01  1.06530000E+01  2.33937000E-01
  117   1  -2.6997E-06  9.67683000E+00  1.31323000E+01  1.70503000E-01
  118   1  5.5380E-07  1.04400000E+01  1.43533000E+01  2.19860000E-01
  119   1  5.6627E-06  1.18890000E+01  1.43740000E+01  2.79412000E-01
  120   1  -4.2048E-06  1.26048000E+01  1.31267000E+01  2.20844000E-01
  121   1  -1.7290E-06  9.68781000E+00  1.55812000E+01  1.09934000E-01
  122   1  -5.0006E-07  1.03898000E+01  1.68501000E+01  1.23364000E-01
  123   1  8.5308E-08  1.18235000E+01  1.68575000E+01  1.86702000E-01
  124   1  -2.2512E-06  1.26022000E+01  1.56419000E+01  2.47288000E-01
  125   1  -1.2261E-07  9.69145000E+00  1.81086000E+01  2.92154000E-03
  126   1  7.4898E-07  1.04445000E+01  1.93371000E+01  1.56794000E-02
  127   1  -3.0402E-06  1.18852000E+01  1.93600000E+01  3.68812000E-02
  128   1  1.8510E-07  1.25623000E+01  1.81186000E+01  9.51049000E-02
  129   1  -2.8872E-06  9.71964000E+00  2.05861000E+01  1.10831000E-02
  130   1  7.5681E-07  1.04754000E+01  2.18290000E+01  5.69491000E-02
  131   1  -1.9876E-06  1.19173000E+01  2.19042000E+01  7.54486000E-02
  132   1  2.8742E-06  1.26160000E+01  2.06334000E+01  6.56291000E-02
  133   1  -1.8340E-06  9.74173000E+00  2.30991000E+01  3.48879000E-02
  134   1  8.4407E-07  1.04717000E+01  2.43565000E+01  7.46106000E-02
  135   1  -6.6563E-07  1.19268000E+01  2.43912000E+01  2.32175000E-03
  136   1  5.4881E-06  1.26459000E+01  2.31526000E+01  -7.19583000E-03
  137   1  -3.1975E-06  9.74720000E+00  2.55992000E+01  9.25492000E-02
  138   1  3.3336E-06  1.04875000E+01  2.68321000E+01  1.37287000E-01
  139   1  -2.5789E-06  1.19324000E+01  2.68736000E+01  1.19103000E-01
  140   1  1.3214E-06  1.26326000E+01  2.56429000E+01  4.44279000E-02
  141   1  -2.7482E-06  9.76738000E+00  2.81122000E+01  1.76651000E-01
  142   1  8.0419E-07  1.04771000E+01  2.93731000E+01  1.02528000E-01
  143   1  -2.7451E-06  1.19486000E+01  2.94045000E+01  2.14002000E-01
  144   1  2.0342E-06  1.26464000E+01  2.81466000E+01  2.13213000E-01
  145   1  -6.5828E-06  1.41017000E+01  6.64828000E-01  1.28779000E-01
  146   1  3.2894E-06  1.48080000E+01  1.90256000E+00  -4.90190000E-02
  147   1  -5.3878E-06  1.62482000E+01  1.85451000E+00  -1.05140000E-02
  148   1  8.7265E-06  1.69916000E+01  6.23455000E-01  4.86839000E-02
  149   1  -2.0924E-06  1.40334000E+01  3.11587000E+00  -7.27532000E-02
  150   1  7.2901E-06  1.47511000E+01  4.34982000E+00  -8.14275000E-02
  151   1  -5.0008E-06  1.61869000E+01  4.34851000E+00  -3.45827000E-02
  152   1  6.2348E-06  1.69474000E+01  3.13906000E+00  6.46067000E-02
  153   1  -7.1038E-06  1.40248000E+01  5.61437000E+00  3.00747000E-03
  154   1  9.0601E-06  1.47464000E+01  6.87065000E+00  -6.94183000E-02
  155   1  -4.2562E-06  1.62065000E+01  6.88595000E+00  -9.88129000E-02
  156   1  2.6351E-06  1.69027000E+01  5.62679000E+00  -4.59845000E-02
  157   1  -3.6251E-06  1.40916000E+01  8.13566000E+00  2.39528000E-02
  158   1  5.0186E-06  1.48109000E+01  9.39094000E+00  1.09600000E-01
  159   1  -3.7990E-06  1.62400000E+01  9.44273000E+00  1.03771000E-01
  160   1  3.0910E-06  1.68916000E+01  8.15900000E+00  3.04930000E-02
  161   1  -1.8102E-07  1.40831000E+01  1.06584000E+01  1.55711000E-01
  162   1  -1.4761E-06  1.47719000E+01  1.19216000E+01  7.13898000E-02
  163   1  2.7524E-06  1.62287000E+01  1.19099000E+01  9.96676000E-02
  164   1  -6.2487E-07  1.69881000E+01  1.06864000E+01  1.56958000E-01
  165   1  -4.5343E-07  1.40615000E+01  1.31682000E+01  1.25634000E-01
  166   1  -3.3730E-06  1.47853000E+01  1.44250000E+01  1.74795000E-01
  167   1  2.1706E-06  1.62379000E+01  1.44035000E+01  8.24614000E-02
  168   1  -2.0356E-07  1.69578000E+01  1.31572000E+01  1.03895000E-01
  169   1  1.5397E-06  1.40675000E+01  1.56559000E+01  1.48797000E-01
  170   1  -4.4145E-06  1.47511000E+01  1.69237000E+01  4.59291000E-02
  171   1  2.8285E-06  1.62114000E+01  1.68975000E+01  5.79873000E-02
  172   1  -1.5478E-06  1.69433000E+01  1.56559000E+01  4.52027000E-02
  173   1  8.2814E-07  1.40256000E+01  1.81481000E+01  9.09008000E-04
  174   1  1.4403E-06  1.47724000E+01  1.93984000E+01  -1.65905000E-02
  175   1  -2.0820E-06  1.62331000E+01  1.93988000E+01  3.55808000E-02
  176   1  5.6744E-07  1.69328000E+01  1.81505000E+01  3.27457000E-02
  177   1  -9.0481E-07  1.40342000E+01  2.06121000E+01  -2.71569000E-02
  178   1  1.4192E-06  1.47913000E+01  2.18784000E+01  -4.70627000E-02
  179   1  -2.0326E-06  1.62518000E+01  2.18952000E+01  7.32238000E-02
  180   1  1.6262E-06  1.69706000E+01  2.06430000E+01  1.10991000E-01
  181   1  -4.0725E-06  1.40896000E+01  2.31223000E+01  6.13634000E-02
  182   1  1.7767E-06  1.48114000E+01  2.43982000E+01  1.98128000E-01
  183   1  -3.4218E-06  1.62291000E+01  2.44019000E+01  2.07196000E-01
  184   1  4.7989E-06  1.69865000E+01  2.31379000E+01  1.39993000E-01
  185   1  -2.1978E-06  1.40829000E+01  2.56387000E+01  1.47933000E-01
  186   1  6.5088E-06  1.48021000E+01  2.68943000E+01  2.48216000E-01
  187   1  -6.7692E-06  1.62407000E+01  2.69009000E+01  1.81930000E-01
  188   1  6.2136E-06  1.69532000E+01  2.56463000E+01  2.10459000E-01
  189   1  -4.2949E-06  1.40801000E+01  2.81564000E+01  2.77445000E-01
  190   1  7.8507E-06  1.47826000E+01  2.94281000E+01  2.95568000E-01
  191   1  -3.8671E-06  1.62307000E+01  2.93908000E+01  1.76075000E-01
  192   1  4.9562E-06  1.69583000E+01  2.81614000E+01  8.72025000E-02
  193   1  -8.8447E-06  1.84344000E+01  6.53271000E-01  4.83757000E-02
  194   1  4.7492E-06  1.91407000E+01  1.91241000E+00  5.66857000E-02
  195   1  -4.1012E-06  2.05840000E+01  1.89936000E+00  2.31597000E-02
  196   1  5.4373E-06  2.13201000E+01  6.31236000E-01  -9.15795000E-03
  197   1  -2.3036E-06  1.83957000E+01  3.15016000E+00  7.62218000E-02
  198   1  3.6797E-06  1.91243000E+01  4.40498000E+00  4.09733000E-02
  199   1  -3.0006E-06  2.05725000E+01  4.38956000E+00  -4.36342000E-02
  200   1  2.2524E-06  2.13045000E+01  3.12907000E+00  4.63444000E-03
  201   1  -4.6145E-06  1.83476000E+01  5.60158000E+00  -3.28335000E-02
  202   1  1.7600E-06  1.90748000E+01  6.83649000E+00  -3.85254000E-02
  203   1  -6.4501E-07  2.05197000E+01  6.86861000E+00  -8.10943000E-03
  204   1  3.0799E-06  2.12820000E+01  5.62738000E+00  -6.66047000E-02
  205   1  -1.2746E-06  1.83295000E+01  8.09171000E+00  -1.99186000E-02
  206   1  -2.5841E-06  1.90658000E+01  9.32391000E+00  3.20611000E-02
  207   1  -1.1615E-06  2.05361000E+01  9.34243000E+00  3.41926000E-02
  208   1  -9.9400E-07  2.12595000E+01  8.09909000E+00  1.88940000E-02
  209   1  2.5474E-06  1.84360000E+01  1.06213000E+01  8.82757000E-02
  210   1  -1.4637E-06  1.91678000E+01  1.18781000E+01  7.95552000E-02
  211   1  1.1669E-06  2.05896000E+01  1.18753000E+01  2.44469000E-03
  212   1  3.3518E-08  2.12579000E+01  1.05768000E+01  8.25372000E-02
  213   1  2.5259E-06  1.83938000E+01  1.31153000E+01  9.34008000E-02
  214   1  -2.7981E-06  1.90589000E+01  1.43908000E+01  6.22924000E-02
  215   1  -9.8649E-07  2.05184000E+01  1.44035000E+01  7.27006000E-02
  216   1  5.9209E-07  2.12460000E+01  1.31737000E+01  2.31952000E-02
  217   1  -9.2115E-07  1.83988000E+01  1.56453000E+01  -6.08561000E-02
  218   1  1.2473E-06  1.91158000E+01  1.68881000E+01  1.31444000E-01
  219   1  -1.8367E-06  2.05656000E+01  1.68871000E+01  9.04269000E-02
  220   1  1.5842E-06  2.12700000E+01  1.56456000E+01  5.45551000E-02
  221   1  9.8507E-07  1.83894000E+01  1.81095000E+01  3.93811000E-02
  222   1  3.4591E-08  1.91225000E+01  1.93826000E+01  1.46881000E-01
  223   1  -1.8902E-06  2.05590000E+01  1.93876000E+01  1.31142000E-01
  224   1  3.5265E-06  2.12937000E+01  1.81315000E+01  4.75941000E-02
  225   1  2.2188E-08  1.84054000E+01  2.06210000E+01  1.71248000E-01
  226   1  1.6000E-06  1.91146000E+01  2.18910000E+01  2.46466000E-01
  227   1  -3.4858E-06  2.05675000E+01  2.18881000E+01  1.96863000E-01
  228   1  2.6936E-06  2.12671000E+01  2.06300000E+01  1.03326000E-01
  229   1  -1.3963E-06  1.84152000E+01  2.31394000E+01  2.50679000E-01
  230   1  4.6535E-06  1.91523000E+01  2.43776000E+01  1.31821000E-01
  231   1  -4.3406E-06  2.05683000E+01  2.44187000E+01  1.25585000E-01
  232   1  5.8278E-06  2.12716000E+01  2.31370000E+01  1.78214000E-01
  233   1  -3.9433E-06  1.84029000E+01  2.56254000E+01  1.52470000E-01
  234   1  7.0233E-06  1.90782000E+01  2.68868000E+01  3.07566000E-02
  235   1  -7.9727E-06  2.05236000E+01  2.69026000E+01  -2.73234000E-02
  236   1  7.8871E-06  2.13020000E+01  2.56812000E+01  4.47099000E-02
  237   1  -9.9259E-06  1.83911000E+01  2.81406000E+01  -3.68829000E-02
  238   1  7.7990E-06  1.91508000E+01  2.94025000E+01  2.75832000E-03
  239   1  -7.7706E-06  2.05726000E+01  2.94013000E+01  -4.07335000E-02
  240   1  3.2272E-06  2.12807000E+01  2.81331000E+01  -5.71416000E-02
  241   1  -4.3454E-06  2.27385000E+01  6.34640000E-01  -1.13670000E-01
  242   1  1.6189E-06  2.34949000E+01  1.87522000E+00  -2.08095000E-01
  243   1  2.9333E-06  2.49253000E+01  1.86810000E+00  -1.85981000E-01
  244   1  1.4229E-07  2.56331000E+01  6.06979000E-01  -2.21161000E-01
  245   1  -6.2195E-06  2.27352000E+01  3.11096000E+00  -1.53063000E-01
  246   1  2.9705E-06  2.34626000E+01  4.36866000E+00  -1.55773000E-01
  247   1  2.1378E-07  2.48931000E+01  4.39478000E+00  -1.26661000E-01
  248   1  6.6172E-07  2.56193000E+01  3.13648000E+00  -1.34825000E-01
  249   1  -2.7205E-06  2.27195000E+01  5.61235000E+00  -1.14120000E-01
  250   1  -1.6697E-06  2.34435000E+01  6.86043000E+00  -1.13065000E-01
  251   1  1.6860E-06  2.48826000E+01  6.89902000E+00  -1.30612000E-03
  252   1  3.3500E-07  2.55844000E+01  5.66537000E+00  -4.98658000E-02
  253   1  -1.2917E-06  2.27075000E+01  8.14122000E+00  -4.93780000E-02
  254   1  -3.6173E-06  2.34170000E+01  9.34900000E+00  -5.85856000E-03
  255   1  -2.8348E-07  2.48841000E+01  9.40309000E+00  1.99237000E-02
  256   1  -4.2778E-07  2.56000000E+01  8.16405000E+00  5.63209000E-02
  257   1  2.8121E-06  2.26966000E+01  1.06103000E+01  8.05614000E-02
  258   1  -2.2587E-07  2.33834000E+01  1.19097000E+01  -2.82023000E-02
  259   1  -3.0773E-06  2.48436000E+01  1.19004000E+01  -5.50848000E-02
  260   1  3.3014E-06  2.55887000E+01  1.06689000E+01  -2.52769000E-03
  261   1  -7.7234E-07  2.26887000E+01  1.31401000E+01  -9.52742000E-02
  262   1  3.6087E-06  2.34325000E+01  1.44133000E+01  3.40799000E-02
  263   1  -1.6702E-06  2.48512000E+01  1.44290000E+01  -2.13266000E-02
  264   1  4.1582E-06  2.55635000E+01  1.31551000E+01  -8.01369000E-02
  265   1  -4.0079E-06  2.27172000E+01  1.56506000E+01  4.05285000E-02
  266   1  3.6926E-06  2.34866000E+01  1.68775000E+01  1.01455000E-01
  267   1  -5.0624E-06  2.49286000E+01  1.69036000E+01  1.05502000E-01
  268   1  4.1020E-06  2.56547000E+01  1.56452000E+01  1.24834000E-02
  269   1  -7.0957E-06  2.27233000E+01  1.81037000E+01  4.96232000E-02
  270   1  6.9908E-06  2.34482000E+01  1.93624000E+01  1.48132000E-01
  271   1  -3.9274E-06  2.48678000E+01  1.93814000E+01  2.69109000E-01
  272   1  7.7384E-06  2.56354000E+01  1.81594000E+01  1.68459000E-01
  273   1  -7.5517E-06  2.27175000E+01  2.06259000E+01  1.45486000E-01
  274   1  3.0711E-06  2.34462000E+01  2.18565000E+01  1.46227000E-01
  275   1  -7.5590E-06  2.49083000E+01  2.19068000E+01  2.08409000E-01
  276   1  6.1939E-06  2.55959000E+01  2.06546000E+01  2.92685000E-01
  277   1  -4.5352E-06  2.27131000E+01  2.31089000E+01  2.10812000E-01
  278   1  3.3707E-06  2.34208000E+01  2.43507000E+01  1.60172000E-01
  279   1  -5.4083E-06  2.48815000E+01  2.43933000E+01  1.65715000E-01
  280   1  6.0386E-06  2.56321000E+01  2.31574000E+01  2.08571000E-01
  281   1  -4.7781E-06  2.27191000E+01  2.56416000E+01  2.75887000E-02
  282   1  4.4969E-06  2.34702000E+01  2.68883000E+01  5.99703000E-02
  283   1  -4.9318E-06  2.48923000E+01  2.68663000E+01  -6.72072000E-03
  284   1  5.3573E-06  2.55958000E+01  2.56223000E+01  1.13228000E-01
  285   1  -1.6475E-06  2.27075000E+01  2.81272000E+01  7.68239000E-02
  286   1  2.8429E-07  2.34268000E+01  2.93738000E+01  -3.48840000E-02
  287   1  -1.8886E-06  2.48685000E+01  2.93962000E+01  -1.78351000E-01
  288   1  2.3571E-06  2.56095000E+01  2.81546000E+01  -1.40506000E-01
  289   1  3.1145E-06  2.70898000E+01  6.31145000E-01  -1.30647000E-01
  290   1  -1.1917E-06  2.77868000E+01  1.87414000E+00  -8.23026000E-02
  291   1  3.3848E-07  2.92389000E+01  1.91282000E+00  -4.26358000E-02
  292   1  1.0151E-06  2.99407000E+01  6.72168000E-01  -6.85524000E-02
  293   1  7.4948E-07  2.70372000E+01  3.13081000E+00  -5.39708000E-02
  294   1  2.3827E-06  2.77262000E+01  4.40419000E+00  9.89323000E-02
  295   1  9.7963E-07  2.91661000E+01  4.39914000E+00  1.46054000E-01
  296   1  9.3544E-07  2.99442000E+01  3.17123000E+00  -2.93108000E-03
  297   1  -2.6883E-06  2.70333000E+01  5.63675000E+00  1.06116000E-01
  298   1  2.9437E-06  2.77455000E+01  6.91541000E+00  1.68675000E-01
  299   1  -4.9742E-06  2.91789000E+01  6.87962000E+00  1.99053000E-01
  300   1  -1.7614E-06  2.99030000E+01  5.63368000E+00  2.32223000E-01
  301   1  3.3796E-07  2.70548000E+01  8.16339000E+00  1.20018000E-01
  302   1  2.6680E-06  2.77837000E+01  9.43327000E+00  1.15376000E-01
  303   1  -6.4107E-06  2.92076000E+01  9.37594000E+00  1.45184000E-02
  304   1  5.7396E-06  2.99326000E+01  8.13887000E+00  1.22878000E-01
  305   1  -2.6762E-06  2.70280000E+01  1.06578000E+01  9.88861000E-02
  306   1  5.1409E-06  2.77287000E+01  1.18957000E+01  6.14595000E-02
  307   1  -5.0362E-06  2.92013000E+01  1.18488000E+01  -4.54885000E-02
  308   1  6.1393E-06  2.99180000E+01  1.06382000E+01  -9.71974000E-02
  309   1  -4.8800E-06  2.69993000E+01  1.31344000E+01  1.16597000E-02
  310   1  3.4486E-06  2.77494000E+01  1.43618000E+01  6.01336000E-02
  311   1  -9.5086E-06  2.92011000E+01  1.43426000E+01  6.59720000E-02
  312   1  5.8137E-06  2.99163000E+01  1.31140000E+01  -2.99447000E-02
  313   1  -7.3207E-06  2.70721000E+01  1.56314000E+01  8.20171000E-02
  314   1  7.3246E-06  2.77732000E+01  1.69408000E+01  4.97911000E-02
  315   1  -8.5439E-06  2.91788000E+01  1.69067000E+01  3.17022000E-02
  316   1  7.4297E-06  2.98869000E+01  1.56233000E+01  -6.24124000E-02
  317   1  -8.2108E-06  2.70737000E+01  1.81968000E+01  1.57511000E-01
  318   1  8.5332E-06  2.77868000E+01  1.94643000E+01  2.19478000E-01
  319   1  -4.7669E-06  2.92352000E+01  1.94209000E+01  2.48453000E-01
  320   1  8.8473E-06  2.99266000E+01  1.81572000E+01  9.76520000E-02
  321   1  -4.7165E-06  2.70464000E+01  2.06914000E+01  2.92159000E-01
  322   1  7.3449E-06  2.77833000E+01  2.19134000E+01  3.33493000E-01
  323   1  -4.3796E-06  2.92065000E+01  2.19102000E+01  2.36095000E-01
  324   1  6.5777E-06  2.99503000E+01  2.06697000E+01  1.97152000E-01
  325   1  -4.3267E-06  2.70701000E+01  2.31875000E+01  2.09984000E-01
  326   1  4.9659E-06  2.78137000E+01  2.44224000E+01  1.20713000E-01
  327   1  -7.8412E-06  2.92536000E+01  2.44155000E+01  1.21663000E-01
  328   1  4.9056E-06  2.99546000E+01  2.31645000E+01  1.44185000E-01
  329   1  -5.8561E-06  2.70802000E+01  2.56598000E+01  1.33132000E-01
  330   1  4.3999E-06  2.77690000E+01  2.68919000E+01  1.59377000E-02
  331   1  -8.2671E-06  2.92294000E+01  2.68939000E+01  3.87268000E-02
  332   1  9.0950E-06  2.99866000E+01  2.56669000E+01  -1.98552000E-02
  333   1  -2.8079E-06  2.70186000E+01  2.81176000E+01  -1.47447000E-01
  334   1  2.7822E-06  2.77635000E+01  2.93842000E+01  -1.12685000E-01
  335   1  -2.3565E-06  2.92157000E+01  2.94185000E+01  -7.21028000E-02
  336   1  9.7398E-06  2.99070000E+01  2.81493000E+01  -1.02464000E-01
  337   1  -2.2433E-06  3.13813000E+01  6.00632000E-01  4.29508000E-02
  338   1  2.0118E-06  3.21099000E+01  1.86752000E+00  -1.56362000E-02
  339   1  -5.4624E-06  3.35406000E+01  1.89979000E+00  1.27088000E-01
  340   1  6.8916E-06  3.42593000E+01  6.28862000E-01  1.07245000E-01
  341   1  -4.7157E-06  3.13939000E+01  3.11301000E+00  2.70424000E-02
  342   1  4.1430E-06  3.20888000E+01  4.39152000E+00  7.50451000E-02
  343   1  -2.9068E-06  3.35227000E+01  4.40323000E+00  6.14391000E-02
  344   1  6.4849E-06  3.42178000E+01  3.17084000E+00  7.67392000E-02
  345   1  -7.1441E-06  3.13483000E+01  5.63265000E+00  1.90412000E-01
  346   1  3.6380E-06  3.20742000E+01  6.88298000E+00  2.09676000E-01
  347   1  -1.7626E-06  3.35330000E+01  6.85963000E+00  1.26418000E-01
  348   1  4.0466E-06  3.42960000E+01  5.64813000E+00  6.82935000E-02
  349   1  -4.8858E-07  3.13672000E+01  8.13165000E+00  6.37599000E-02
  350   1  3.5767E-06  3.21093000E+01  9.39714000E+00  -4.36251000E-02
  351   1  -3.3655E-06  3.35472000E+01  9.35414000E+00  -1.59542000E-02
  352   1  3.0375E-06  3.42742000E+01  8.09561000E+00  8.29926000E-02
  353   1  -1.3996E-06  3.13777000E+01  1.06480000E+01  -1.32382000E-01
  354   1  6.8893E-07  3.20892000E+01  1.18884000E+01  -8.88527000E-02
  355   1  -2.0581E-06  3.35398000E+01  1.18822000E+01  -2.85494000E-02
  356   1  2.6356E-06  3.42484000E+01  1.06094000E+01  -1.49005000E-02
  357   1  -3.0013E-06  3.13626000E+01  1.31393000E+01  -1.15324000E-01
  358   1  2.3199E-06  3.20940000E+01  1.43891000E+01  -9.67049000E-02
  359   1  -5.8286E-06  3.35225000E+01  1.43923000E+01  -4.07198000E-02
  360   1  3.0623E-06  3.42384000E+01  1.31360000E+01  -7.57921000E-02
  361   1  -6.3353E-06  3.12886000E+01  1.56177000E+01  -1.63476000E-01
  362   1  8.4470E-06  3.20709000E+01  1.68419000E+01  -1.36444000E-01
  363   1  -6.0730E-06  3.35186000E+01  1.68884000E+01  -9.45718000E-02
  364   1  3.0346E-06  3.42612000E+01  1.56348000E+01  -9.20333000E-02
  365   1  -6.0747E-06  3.13538000E+01  1.81297000E+01  -1.57397000E-02
  366   1  7.4109E-06  3.21213000E+01  1.93773000E+01  5.49412000E-02
  367   1  -3.7016E-06  3.35501000E+01  1.93593000E+01  -3.93265000E-02
  368   1  1.8683E-06  3.42767000E+01  1.81240000E+01  8.71405000E-03
  369   1  -9.2508E-06  3.13998000E+01  2.06121000E+01  1.86006000E-01
  370   1  6.2879E-06  3.20911000E+01  2.18883000E+01  2.28092000E-01
  371   1  -2.4475E-06  3.35403000E+01  2.18532000E+01  8.65405000E-02
  372   1  3.0090E-06  3.42762000E+01  2.06235000E+01  5.71944000E-03
  373   1  -5.0028E-06  3.13978000E+01  2.31244000E+01  1.18953000E-01
  374   1  2.8433E-06  3.21189000E+01  2.43851000E+01  6.29221000E-02
  375   1  -3.7552E-06  3.35819000E+01  2.43877000E+01  -1.00003000E-02
  376   1  2.1831E-06  3.42487000E+01  2.31056000E+01  1.34910000E-01
  377   1  -6.5706E-06  3.14179000E+01  2.56336000E+01  -4.40083000E-02
  378   1  1.7820E-06  3.21398000E+01  2.69164000E+01  -8.54598000E-02
  379   1  -5.2515E-06  3.35661000E+01  2.68709000E+01  -4.89328000E-02
  380   1  4.9632E-06  3.43048000E+01  2.56206000E+01  -4.82513000E-02
  381   1  -5.6439E-06  3.13685000E+01  2.81429000E+01  -8.81153000E-02
  382   1  7.2323E-06  3.20877000E+01  2.93959000E+01  8.18357000E-02
  383   1  -6.0508E-06  3.35479000E+01  2.93891000E+01  8.81845000E-02
  384   1  2.9733E-06  3.42672000E+01  2.81448000E+01  1.54522000E-02
  385   1  -4.3417E-06  3.56993000E+01  6.31494000E-01  1.53251000E-01
  386   1  8.3169E-06  3.63779000E+01  1.91221000E+00  8.21019000E-02
  387   1  -8.7899E-06  3.78419000E+01  1.86464000E+00  1.02185000E-01
  388   1  6.8546E-06  3.85647000E+01  6.46018000E-01  3.29639000E-02
  389   1  -8.5831E-06  3.56989000E+01  3.16201000E+00  1.05931000E-01
  390   1  6.2849E-06  3.64362000E+01  4.38230000E+00  1.35913000E-01
  391   1  -6.5413E-06  3.78751000E+01  4.37110000E+00  1.63646000E-01
  392   1  8.5015E-06  3.86084000E+01  3.10308000E+00  9.81999000E-02
  393   1  -5.8218E-06  3.57421000E+01  5.63170000E+00  -1.30060000E-02
  394   1  6.0312E-06  3.64626000E+01  6.89342000E+00  4.07605000E-02
  395   1  -3.8856E-06  3.78736000E+01  6.86049000E+00  -1.05120000E-01
  396   1  5.8509E-06  3.85818000E+01  5.60711000E+00  -9.54023000E-03
  397   1  -4.2100E-06  3.57193000E+01  8.14607000E+00  2.98838000E-02
  398   1  2.5390E-06  3.63956000E+01  9.41386000E+00  -2.50357000E-02
  399   1  -3.7804E-06  3.78463000E+01  9.38889000E+00  -5.29518000E-02
  400   1  2.3621E-06  3.85871000E+01  8.16090000E+00  -1.08242000E-01
  401   1  -3.2158E-06  3.56851000E+01  1.06726000E+01  -2.08901000E-02
  402   1  2.8028E-06  3.64314000E+01  1.19129000E+01  -7.54471000E-02
  403   1  1.2369E-06  3.78772000E+01  1.18801000E+01  -1.00398000E-01
  404   1  3.6411E-06  3.85730000E+01  1.06475000E+01  -5.19365000E-02
  405   1  -3.4516E-06  3.56882000E+01  1.31524000E+01  -2.06713000E-02
  406   1  -1.3749E-08  3.64387000E+01  1.43684000E+01  -1.55823000E-02
  407   1  2.1973E-07  3.79013000E+01  1.43896000E+01  5.49407000E-02
  408   1  2.5892E-06  3.86031000E+01  1.31553000E+01  -4.56735000E-02
  409   1  -1.6631E-07  3.57127000E+01  1.56201000E+01  -5.91939000E-02
  410   1  2.9380E-07  3.64349000E+01  1.68601000E+01  1.65058000E-03
  411   1  4.1269E-07  3.78843000E+01  1.68163000E+01  -1.76489000E-02
  412   1  5.2398E-07  3.86525000E+01  1.56215000E+01  -2.39698000E-03
  413   1  -7.7263E-07  3.57035000E+01  1.81131000E+01  8.46564000E-02
  414   1  6.8633E-07  3.64123000E+01  1.93689000E+01  5.58424000E-02
  415   1  8.4645E-08  3.78652000E+01  1.93708000E+01  6.93555000E-02
  416   1  8.5629E-07  3.85927000E+01  1.81151000E+01  1.92347000E-02
  417   1  -1.5924E-06  3.57165000E+01  2.06114000E+01  1.48285000E-01
  418   1  5.8090E-06  3.64223000E+01  2.18812000E+01  1.31534000E-01
  419   1  -3.8483E-06  3.78711000E+01  2.18653000E+01  1.31701000E-01